version 2
run Double-3-20150802-15:09:14-3081
attr configname Double
attr datetime 20150802-15:09:14
attr experiment Double
attr inifile ./simulations/single/omnetpp1.ini
attr iterationvars $0=150m
attr iterationvars2 "$0=150m, $repetition=0"
attr measurement $0=150m
attr network lte_d2d.simulations.networks.onepair
attr processid 3081
attr repetition 0
attr replication #0
attr resultdir results
attr runnumber 3
attr seedset 3

vector 6  onepair.master.nic.phy  SINR_dlvect:vector  ETV
attr source  SINR_dlvect
attr title  "vector of SINR, vector"
attr unit  db
6	7	0.002	24.896488207778
6	23	0.008	24.896488207778
6	39	0.014	24.896488207778
6	55	0.02	24.896488207778
6	71	0.026	24.896488207778
6	87	0.032	24.896488207778
6	103	0.038	24.896488207778
6	119	0.044	24.896488207778
6	135	0.05	24.896488207778
6	151	0.056	24.896488207778
6	167	0.062	24.896488207778
6	183	0.068	24.896488207778
6	199	0.074	24.896488207778
6	215	0.08	24.896488207778
6	231	0.086	24.896488207778
6	247	0.092	24.896488207778
6	263	0.098	24.896488207778
6	279	0.104	24.896488207778
6	295	0.11	24.896488207778
6	311	0.116	24.896488207778
6	327	0.122	24.896488207778
6	343	0.128	24.896488207778
6	359	0.134	24.896488207778
6	375	0.14	24.896488207778
6	391	0.146	24.896488207778
6	407	0.152	24.896488207778
6	423	0.158	24.896488207778
6	439	0.164	24.896488207778
6	455	0.17	24.896488207778
6	471	0.176	24.896488207778
6	487	0.182	24.896488207778
6	503	0.188	24.896488207778
6	519	0.194	24.896488207778
6	535	0.2	24.896488207778
6	551	0.206	24.896488207778
6	567	0.212	24.896488207778
6	583	0.218	24.896488207778
6	599	0.224	24.896488207778
6	615	0.23	24.896488207778
6	631	0.236	24.896488207778
6	647	0.242	24.896488207778
6	663	0.248	24.896488207778
6	679	0.254	24.896488207778
6	695	0.26	24.896488207778
6	711	0.266	24.896488207778
6	727	0.272	24.896488207778
6	743	0.278	24.896488207778
6	759	0.284	24.896488207778
6	775	0.29	24.896488207778
6	791	0.296	24.896488207778
6	807	0.302	24.896488207778
6	823	0.308	24.896488207778
6	839	0.314	24.896488207778
6	855	0.32	24.896488207778
6	871	0.326	24.896488207778
6	887	0.332	24.896488207778
6	903	0.338	24.896488207778
6	919	0.344	24.896488207778
6	935	0.35	24.896488207778
6	951	0.356	24.896488207778
6	967	0.362	24.896488207778
6	983	0.368	24.896488207778
6	999	0.374	24.896488207778
6	1015	0.38	24.896488207778
6	1031	0.386	24.896488207778
6	1047	0.392	24.896488207778
6	1063	0.398	24.896488207778
6	1079	0.404	24.896488207778
6	1095	0.41	24.896488207778
6	1111	0.416	24.896488207778
6	1127	0.422	24.896488207778
6	1143	0.428	24.896488207778
6	1159	0.434	24.896488207778
6	1175	0.44	24.896488207778
6	1191	0.446	24.896488207778
6	1207	0.452	24.896488207778
6	1223	0.458	24.896488207778
6	1239	0.464	24.896488207778
6	1255	0.47	24.896488207778
6	1271	0.476	24.896488207778
6	1287	0.482	24.896488207778
6	1303	0.488	24.896488207778
6	1319	0.494	24.896488207778
6	1339	0.5	24.896488207778
6	1385	0.506	24.896488207778
6	1438	0.512	24.896488207778
6	1490	0.518	24.896488207778
6	1542	0.524	24.896488207778
6	1594	0.53	24.896488207778
6	1645	0.536	24.896488207778
6	1698	0.542	24.896488207778
6	1750	0.548	24.896488207778
6	1802	0.554	24.896488207778
6	1854	0.56	24.896488207778
6	1905	0.566	24.896488207778
6	1958	0.572	24.896488207778
6	2010	0.578	24.896488207778
6	2062	0.584	24.896488207778
6	2114	0.59	24.896488207778
6	2165	0.596	24.896488207778
6	2218	0.602	24.896488207778
6	2270	0.608	24.896488207778
6	2322	0.614	24.896488207778
6	2374	0.62	24.896488207778
6	2425	0.626	24.896488207778
6	2478	0.632	24.896488207778
6	2530	0.638	24.896488207778
6	2582	0.644	24.896488207778
6	2634	0.65	24.896488207778
6	2685	0.656	24.896488207778
6	2738	0.662	24.896488207778
6	2790	0.668	24.896488207778
6	2842	0.674	24.896488207778
6	2894	0.68	24.896488207778
6	2945	0.686	24.896488207778
6	2998	0.692	24.896488207778
6	3050	0.698	24.896488207778
6	3102	0.704	24.896488207778
6	3154	0.71	24.896488207778
6	3205	0.716	24.896488207778
6	3258	0.722	24.896488207778
6	3310	0.728	24.896488207778
6	3362	0.734	24.896488207778
6	3414	0.74	24.896488207778
6	3465	0.746	24.896488207778
6	3518	0.752	24.896488207778
6	3570	0.758	24.896488207778
6	3622	0.764	24.896488207778
6	3674	0.77	24.896488207778
6	3725	0.776	24.896488207778
6	3778	0.782	24.896488207778
6	3830	0.788	24.896488207778
6	3882	0.794	24.896488207778
6	3934	0.8	24.896488207778
6	3985	0.806	24.896488207778
6	4038	0.812	24.896488207778
6	4090	0.818	24.896488207778
6	4142	0.824	24.896488207778
6	4194	0.83	24.896488207778
6	4245	0.836	24.896488207778
6	4298	0.842	24.896488207778
6	4350	0.848	24.896488207778
6	4402	0.854	24.896488207778
6	4454	0.86	24.896488207778
6	4505	0.866	24.896488207778
6	4558	0.872	24.896488207778
6	4610	0.878	24.896488207778
6	4662	0.884	24.896488207778
6	4714	0.89	24.896488207778
6	4765	0.896	24.896488207778
6	4818	0.902	24.896488207778
6	4870	0.908	24.896488207778
6	4922	0.914	24.896488207778
6	4974	0.92	24.896488207778
6	5025	0.926	24.896488207778
6	5078	0.932	24.896488207778
6	5130	0.938	24.896488207778
6	5182	0.944	24.896488207778
6	5234	0.95	24.896488207778
6	5285	0.956	24.896488207778
6	5338	0.962	24.896488207778
6	5390	0.968	24.896488207778
6	5442	0.974	24.896488207778
6	5494	0.98	24.896488207778
6	5545	0.986	24.896488207778
6	5598	0.992	24.896488207778
6	5650	0.998	24.896488207778
6	5702	1.004	24.896488207778
6	5754	1.01	24.896488207778
6	5805	1.016	24.896488207778
6	5858	1.022	24.896488207778
6	5910	1.028	24.896488207778
6	5962	1.034	24.896488207778
6	6014	1.04	24.896488207778
6	6065	1.046	24.896488207778
6	6118	1.052	24.896488207778
6	6170	1.058	24.896488207778
6	6222	1.064	24.896488207778
6	6274	1.07	24.896488207778
6	6325	1.076	24.896488207778
6	6378	1.082	24.896488207778
6	6430	1.088	24.896488207778
6	6482	1.094	24.896488207778
6	6534	1.1	24.896488207778
6	6585	1.106	24.896488207778
6	6638	1.112	24.896488207778
6	6690	1.118	24.896488207778
6	6742	1.124	24.896488207778
6	6794	1.13	24.896488207778
6	6845	1.136	24.896488207778
6	6898	1.142	24.896488207778
6	6950	1.148	24.896488207778
6	7002	1.154	24.896488207778
6	7054	1.16	24.896488207778
6	7105	1.166	24.896488207778
6	7158	1.172	24.896488207778
6	7210	1.178	24.896488207778
6	7262	1.184	24.896488207778
6	7314	1.19	24.896488207778
6	7365	1.196	24.896488207778
6	7418	1.202	24.896488207778
6	7470	1.208	24.896488207778
6	7522	1.214	24.896488207778
6	7574	1.22	24.896488207778
6	7625	1.226	24.896488207778
6	7678	1.232	24.896488207778
6	7730	1.238	24.896488207778
6	7782	1.244	24.896488207778
6	7834	1.25	24.896488207778
6	7885	1.256	24.896488207778
6	7938	1.262	24.896488207778
6	7990	1.268	24.896488207778
6	8042	1.274	24.896488207778
6	8094	1.28	24.896488207778
6	8145	1.286	24.896488207778
6	8198	1.292	24.896488207778
6	8250	1.298	24.896488207778
6	8302	1.304	24.896488207778
6	8354	1.31	24.896488207778
6	8405	1.316	24.896488207778
6	8458	1.322	24.896488207778
6	8510	1.328	24.896488207778
6	8562	1.334	24.896488207778
6	8614	1.34	24.896488207778
6	8665	1.346	24.896488207778
6	8718	1.352	24.896488207778
6	8770	1.358	24.896488207778
6	8822	1.364	24.896488207778
6	8874	1.37	24.896488207778
6	8925	1.376	24.896488207778
6	8978	1.382	24.896488207778
6	9030	1.388	24.896488207778
6	9082	1.394	24.896488207778
6	9134	1.4	24.896488207778
6	9185	1.406	24.896488207778
6	9238	1.412	24.896488207778
6	9290	1.418	24.896488207778
6	9342	1.424	24.896488207778
6	9394	1.43	24.896488207778
6	9445	1.436	24.896488207778
6	9498	1.442	24.896488207778
6	9550	1.448	24.896488207778
6	9602	1.454	24.896488207778
6	9654	1.46	24.896488207778
6	9705	1.466	24.896488207778
6	9758	1.472	24.896488207778
6	9810	1.478	24.896488207778
6	9862	1.484	24.896488207778
6	9914	1.49	24.896488207778
6	9965	1.496	24.896488207778
6	10018	1.502	24.896488207778
6	10070	1.508	24.896488207778
6	10122	1.514	24.896488207778
6	10174	1.52	24.896488207778
6	10225	1.526	24.896488207778
6	10278	1.532	24.896488207778
6	10330	1.538	24.896488207778
6	10382	1.544	24.896488207778
6	10434	1.55	24.896488207778
6	10485	1.556	24.896488207778
6	10538	1.562	24.896488207778
6	10590	1.568	24.896488207778
6	10642	1.574	24.896488207778
6	10694	1.58	24.896488207778
6	10745	1.586	24.896488207778
6	10798	1.592	24.896488207778
6	10850	1.598	24.896488207778
6	10902	1.604	24.896488207778
6	10954	1.61	24.896488207778
6	11005	1.616	24.896488207778
6	11058	1.622	24.896488207778
6	11110	1.628	24.896488207778
6	11162	1.634	24.896488207778
6	11214	1.64	24.896488207778
6	11265	1.646	24.896488207778
6	11318	1.652	24.896488207778
6	11370	1.658	24.896488207778
6	11422	1.664	24.896488207778
6	11474	1.67	24.896488207778
6	11525	1.676	24.896488207778
6	11578	1.682	24.896488207778
6	11630	1.688	24.896488207778
6	11682	1.694	24.896488207778
6	11734	1.7	24.896488207778
6	11785	1.706	24.896488207778
6	11838	1.712	24.896488207778
6	11890	1.718	24.896488207778
6	11942	1.724	24.896488207778
6	11994	1.73	24.896488207778
6	12045	1.736	24.896488207778
6	12098	1.742	24.896488207778
6	12150	1.748	24.896488207778
6	12202	1.754	24.896488207778
6	12254	1.76	24.896488207778
6	12305	1.766	24.896488207778
6	12358	1.772	24.896488207778
6	12410	1.778	24.896488207778
6	12462	1.784	24.896488207778
6	12514	1.79	24.896488207778
6	12565	1.796	24.896488207778
6	12618	1.802	24.896488207778
6	12670	1.808	24.896488207778
6	12722	1.814	24.896488207778
6	12774	1.82	24.896488207778
6	12825	1.826	24.896488207778
6	12878	1.832	24.896488207778
6	12930	1.838	24.896488207778
6	12982	1.844	24.896488207778
6	13034	1.85	24.896488207778
6	13085	1.856	24.896488207778
6	13138	1.862	24.896488207778
6	13190	1.868	24.896488207778
6	13242	1.874	24.896488207778
6	13294	1.88	24.896488207778
6	13345	1.886	24.896488207778
6	13398	1.892	24.896488207778
6	13450	1.898	24.896488207778
6	13502	1.904	24.896488207778
6	13554	1.91	24.896488207778
6	13605	1.916	24.896488207778
6	13658	1.922	24.896488207778
6	13710	1.928	24.896488207778
6	13762	1.934	24.896488207778
6	13814	1.94	24.896488207778
6	13865	1.946	24.896488207778
6	13918	1.952	24.896488207778
6	13970	1.958	24.896488207778
6	14022	1.964	24.896488207778
6	14074	1.97	24.896488207778
6	14125	1.976	24.896488207778
6	14178	1.982	24.896488207778
6	14230	1.988	24.896488207778
6	14282	1.994	24.896488207778
6	14334	2	24.896488207778
6	14385	2.006	24.896488207778
6	14438	2.012	24.896488207778
6	14490	2.018	24.896488207778
6	14542	2.024	24.896488207778
6	14594	2.03	24.896488207778
6	14645	2.036	24.896488207778
6	14698	2.042	24.896488207778
6	14750	2.048	24.896488207778
6	14802	2.054	24.896488207778
6	14854	2.06	24.896488207778
6	14905	2.066	24.896488207778
6	14958	2.072	24.896488207778
6	15010	2.078	24.896488207778
6	15062	2.084	24.896488207778
6	15114	2.09	24.896488207778
6	15165	2.096	24.896488207778
6	15218	2.102	24.896488207778
6	15270	2.108	24.896488207778
6	15322	2.114	24.896488207778
6	15374	2.12	24.896488207778
6	15425	2.126	24.896488207778
6	15478	2.132	24.896488207778
6	15530	2.138	24.896488207778
6	15582	2.144	24.896488207778
6	15634	2.15	24.896488207778
6	15685	2.156	24.896488207778
6	15738	2.162	24.896488207778
6	15790	2.168	24.896488207778
6	15842	2.174	24.896488207778
6	15894	2.18	24.896488207778
6	15945	2.186	24.896488207778
6	15998	2.192	24.896488207778
6	16050	2.198	24.896488207778
6	16102	2.204	24.896488207778
6	16154	2.21	24.896488207778
6	16205	2.216	24.896488207778
6	16258	2.222	24.896488207778
6	16310	2.228	24.896488207778
6	16362	2.234	24.896488207778
6	16414	2.24	24.896488207778
6	16465	2.246	24.896488207778
6	16518	2.252	24.896488207778
6	16570	2.258	24.896488207778
6	16622	2.264	24.896488207778
6	16674	2.27	24.896488207778
6	16725	2.276	24.896488207778
6	16778	2.282	24.896488207778
6	16830	2.288	24.896488207778
6	16882	2.294	24.896488207778
6	16934	2.3	24.896488207778
6	16985	2.306	24.896488207778
6	17038	2.312	24.896488207778
6	17090	2.318	24.896488207778
6	17142	2.324	24.896488207778
6	17194	2.33	24.896488207778
6	17245	2.336	24.896488207778
6	17298	2.342	24.896488207778
6	17350	2.348	24.896488207778
6	17402	2.354	24.896488207778
6	17454	2.36	24.896488207778
6	17505	2.366	24.896488207778
6	17558	2.372	24.896488207778
6	17610	2.378	24.896488207778
6	17662	2.384	24.896488207778
6	17714	2.39	24.896488207778
6	17765	2.396	24.896488207778
6	17818	2.402	24.896488207778
6	17870	2.408	24.896488207778
6	17922	2.414	24.896488207778
6	17974	2.42	24.896488207778
6	18025	2.426	24.896488207778
6	18078	2.432	24.896488207778
6	18130	2.438	24.896488207778
6	18182	2.444	24.896488207778
6	18234	2.45	24.896488207778
6	18285	2.456	24.896488207778
6	18338	2.462	24.896488207778
6	18390	2.468	24.896488207778
6	18442	2.474	24.896488207778
6	18494	2.48	24.896488207778
6	18545	2.486	24.896488207778
6	18598	2.492	24.896488207778
6	18650	2.498	24.896488207778
6	18702	2.504	24.896488207778
6	18754	2.51	24.896488207778
6	18805	2.516	24.896488207778
6	18858	2.522	24.896488207778
6	18910	2.528	24.896488207778
6	18962	2.534	24.896488207778
6	19014	2.54	24.896488207778
6	19065	2.546	24.896488207778
6	19118	2.552	24.896488207778
6	19170	2.558	24.896488207778
6	19222	2.564	24.896488207778
6	19274	2.57	24.896488207778
6	19325	2.576	24.896488207778
6	19378	2.582	24.896488207778
6	19430	2.588	24.896488207778
6	19482	2.594	24.896488207778
6	19534	2.6	24.896488207778
6	19585	2.606	24.896488207778
6	19638	2.612	24.896488207778
6	19690	2.618	24.896488207778
6	19742	2.624	24.896488207778
6	19794	2.63	24.896488207778
6	19845	2.636	24.896488207778
6	19898	2.642	24.896488207778
6	19950	2.648	24.896488207778
6	20002	2.654	24.896488207778
6	20054	2.66	24.896488207778
6	20105	2.666	24.896488207778
6	20158	2.672	24.896488207778
6	20210	2.678	24.896488207778
6	20262	2.684	24.896488207778
6	20314	2.69	24.896488207778
6	20365	2.696	24.896488207778
6	20418	2.702	24.896488207778
6	20470	2.708	24.896488207778
6	20522	2.714	24.896488207778
6	20574	2.72	24.896488207778
6	20625	2.726	24.896488207778
6	20678	2.732	24.896488207778
6	20730	2.738	24.896488207778
6	20782	2.744	24.896488207778
6	20834	2.75	24.896488207778
6	20885	2.756	24.896488207778
6	20938	2.762	24.896488207778
6	20990	2.768	24.896488207778
6	21042	2.774	24.896488207778
6	21094	2.78	24.896488207778
6	21145	2.786	24.896488207778
6	21198	2.792	24.896488207778
6	21250	2.798	24.896488207778
6	21302	2.804	24.896488207778
6	21354	2.81	24.896488207778
6	21405	2.816	24.896488207778
6	21458	2.822	24.896488207778
6	21510	2.828	24.896488207778
6	21562	2.834	24.896488207778
6	21614	2.84	24.896488207778
6	21665	2.846	24.896488207778
6	21718	2.852	24.896488207778
6	21770	2.858	24.896488207778
6	21822	2.864	24.896488207778
6	21874	2.87	24.896488207778
6	21925	2.876	24.896488207778
6	21978	2.882	24.896488207778
6	22030	2.888	24.896488207778
6	22082	2.894	24.896488207778
6	22134	2.9	24.896488207778
6	22185	2.906	24.896488207778
6	22238	2.912	24.896488207778
6	22290	2.918	24.896488207778
6	22342	2.924	24.896488207778
6	22394	2.93	24.896488207778
6	22445	2.936	24.896488207778
6	22498	2.942	24.896488207778
6	22550	2.948	24.896488207778
6	22602	2.954	24.896488207778
6	22654	2.96	24.896488207778
6	22705	2.966	24.896488207778
6	22758	2.972	24.896488207778
6	22810	2.978	24.896488207778
6	22862	2.984	24.896488207778
6	22914	2.99	24.896488207778
6	22965	2.996	24.896488207778
6	23018	3.002	24.896488207778
6	23070	3.008	24.896488207778
6	23122	3.014	24.896488207778
6	23174	3.02	24.896488207778
6	23225	3.026	24.896488207778
6	23278	3.032	24.896488207778
6	23330	3.038	24.896488207778
6	23382	3.044	24.896488207778
6	23434	3.05	24.896488207778
6	23485	3.056	24.896488207778
6	23538	3.062	24.896488207778
6	23590	3.068	24.896488207778
6	23642	3.074	24.896488207778
6	23694	3.08	24.896488207778
6	23745	3.086	24.896488207778
6	23798	3.092	24.896488207778
6	23850	3.098	24.896488207778
6	23902	3.104	24.896488207778
6	23954	3.11	24.896488207778
6	24005	3.116	24.896488207778
6	24058	3.122	24.896488207778
6	24110	3.128	24.896488207778
6	24162	3.134	24.896488207778
6	24214	3.14	24.896488207778
6	24265	3.146	24.896488207778
6	24318	3.152	24.896488207778
6	24370	3.158	24.896488207778
6	24422	3.164	24.896488207778
6	24474	3.17	24.896488207778
6	24525	3.176	24.896488207778
6	24578	3.182	24.896488207778
6	24630	3.188	24.896488207778
6	24682	3.194	24.896488207778
6	24734	3.2	24.896488207778
6	24785	3.206	24.896488207778
6	24838	3.212	24.896488207778
6	24890	3.218	24.896488207778
6	24942	3.224	24.896488207778
6	24994	3.23	24.896488207778
6	25045	3.236	24.896488207778
6	25098	3.242	24.896488207778
6	25150	3.248	24.896488207778
6	25202	3.254	24.896488207778
6	25254	3.26	24.896488207778
6	25305	3.266	24.896488207778
6	25358	3.272	24.896488207778
6	25410	3.278	24.896488207778
6	25462	3.284	24.896488207778
6	25514	3.29	24.896488207778
6	25565	3.296	24.896488207778
6	25618	3.302	24.896488207778
6	25670	3.308	24.896488207778
6	25722	3.314	24.896488207778
6	25774	3.32	24.896488207778
6	25825	3.326	24.896488207778
6	25878	3.332	24.896488207778
6	25930	3.338	24.896488207778
6	25982	3.344	24.896488207778
6	26034	3.35	24.896488207778
6	26085	3.356	24.896488207778
6	26138	3.362	24.896488207778
6	26190	3.368	24.896488207778
6	26242	3.374	24.896488207778
6	26294	3.38	24.896488207778
6	26345	3.386	24.896488207778
6	26398	3.392	24.896488207778
6	26450	3.398	24.896488207778
6	26502	3.404	24.896488207778
6	26554	3.41	24.896488207778
6	26605	3.416	24.896488207778
6	26658	3.422	24.896488207778
6	26710	3.428	24.896488207778
6	26762	3.434	24.896488207778
6	26814	3.44	24.896488207778
6	26865	3.446	24.896488207778
6	26918	3.452	24.896488207778
6	26970	3.458	24.896488207778
6	27022	3.464	24.896488207778
6	27074	3.47	24.896488207778
6	27125	3.476	24.896488207778
6	27178	3.482	24.896488207778
6	27230	3.488	24.896488207778
6	27282	3.494	24.896488207778
6	27334	3.5	24.896488207778
6	27385	3.506	24.896488207778
6	27438	3.512	24.896488207778
6	27490	3.518	24.896488207778
6	27542	3.524	24.896488207778
6	27594	3.53	24.896488207778
6	27645	3.536	24.896488207778
6	27698	3.542	24.896488207778
6	27750	3.548	24.896488207778
6	27802	3.554	24.896488207778
6	27854	3.56	24.896488207778
6	27905	3.566	24.896488207778
6	27958	3.572	24.896488207778
6	28010	3.578	24.896488207778
6	28062	3.584	24.896488207778
6	28114	3.59	24.896488207778
6	28165	3.596	24.896488207778
6	28218	3.602	24.896488207778
6	28270	3.608	24.896488207778
6	28322	3.614	24.896488207778
6	28374	3.62	24.896488207778
6	28425	3.626	24.896488207778
6	28478	3.632	24.896488207778
6	28530	3.638	24.896488207778
6	28582	3.644	24.896488207778
6	28634	3.65	24.896488207778
6	28685	3.656	24.896488207778
6	28738	3.662	24.896488207778
6	28790	3.668	24.896488207778
6	28842	3.674	24.896488207778
6	28894	3.68	24.896488207778
6	28945	3.686	24.896488207778
6	28998	3.692	24.896488207778
6	29050	3.698	24.896488207778
6	29102	3.704	24.896488207778
6	29154	3.71	24.896488207778
6	29205	3.716	24.896488207778
6	29258	3.722	24.896488207778
6	29310	3.728	24.896488207778
6	29362	3.734	24.896488207778
6	29414	3.74	24.896488207778
6	29465	3.746	24.896488207778
6	29518	3.752	24.896488207778
6	29570	3.758	24.896488207778
6	29622	3.764	24.896488207778
6	29674	3.77	24.896488207778
6	29725	3.776	24.896488207778
6	29778	3.782	24.896488207778
6	29830	3.788	24.896488207778
6	29882	3.794	24.896488207778
6	29934	3.8	24.896488207778
6	29985	3.806	24.896488207778
6	30038	3.812	24.896488207778
6	30090	3.818	24.896488207778
6	30142	3.824	24.896488207778
6	30194	3.83	24.896488207778
6	30245	3.836	24.896488207778
6	30298	3.842	24.896488207778
6	30350	3.848	24.896488207778
6	30402	3.854	24.896488207778
6	30454	3.86	24.896488207778
6	30505	3.866	24.896488207778
6	30558	3.872	24.896488207778
6	30610	3.878	24.896488207778
6	30662	3.884	24.896488207778
6	30714	3.89	24.896488207778
6	30765	3.896	24.896488207778
6	30818	3.902	24.896488207778
6	30870	3.908	24.896488207778
6	30922	3.914	24.896488207778
6	30974	3.92	24.896488207778
6	31025	3.926	24.896488207778
6	31078	3.932	24.896488207778
6	31130	3.938	24.896488207778
6	31182	3.944	24.896488207778
6	31234	3.95	24.896488207778
6	31285	3.956	24.896488207778
6	31338	3.962	24.896488207778
6	31390	3.968	24.896488207778
6	31442	3.974	24.896488207778
6	31494	3.98	24.896488207778
6	31545	3.986	24.896488207778
6	31598	3.992	24.896488207778
6	31650	3.998	24.896488207778
6	31702	4.004	24.896488207778
6	31754	4.01	24.896488207778
6	31805	4.016	24.896488207778
6	31858	4.022	24.896488207778
6	31910	4.028	24.896488207778
6	31962	4.034	24.896488207778
6	32014	4.04	24.896488207778
6	32065	4.046	24.896488207778
6	32118	4.052	24.896488207778
6	32170	4.058	24.896488207778
6	32222	4.064	24.896488207778
6	32274	4.07	24.896488207778
6	32325	4.076	24.896488207778
6	32378	4.082	24.896488207778
6	32430	4.088	24.896488207778
6	32482	4.094	24.896488207778
6	32534	4.1	24.896488207778
6	32585	4.106	24.896488207778
6	32638	4.112	24.896488207778
6	32690	4.118	24.896488207778
6	32742	4.124	24.896488207778
6	32794	4.13	24.896488207778
6	32845	4.136	24.896488207778
6	32898	4.142	24.896488207778
6	32950	4.148	24.896488207778
6	33002	4.154	24.896488207778
6	33054	4.16	24.896488207778
6	33105	4.166	24.896488207778
6	33158	4.172	24.896488207778
6	33210	4.178	24.896488207778
6	33262	4.184	24.896488207778
6	33314	4.19	24.896488207778
6	33365	4.196	24.896488207778
6	33418	4.202	24.896488207778
6	33470	4.208	24.896488207778
6	33522	4.214	24.896488207778
6	33574	4.22	24.896488207778
6	33625	4.226	24.896488207778
6	33678	4.232	24.896488207778
6	33730	4.238	24.896488207778
6	33782	4.244	24.896488207778
6	33834	4.25	24.896488207778
6	33885	4.256	24.896488207778
6	33938	4.262	24.896488207778
6	33990	4.268	24.896488207778
6	34042	4.274	24.896488207778
6	34094	4.28	24.896488207778
6	34145	4.286	24.896488207778
6	34198	4.292	24.896488207778
6	34250	4.298	24.896488207778
6	34302	4.304	24.896488207778
6	34354	4.31	24.896488207778
6	34405	4.316	24.896488207778
6	34458	4.322	24.896488207778
6	34510	4.328	24.896488207778
6	34562	4.334	24.896488207778
6	34614	4.34	24.896488207778
6	34665	4.346	24.896488207778
6	34718	4.352	24.896488207778
6	34770	4.358	24.896488207778
6	34822	4.364	24.896488207778
6	34874	4.37	24.896488207778
6	34925	4.376	24.896488207778
6	34978	4.382	24.896488207778
6	35030	4.388	24.896488207778
6	35082	4.394	24.896488207778
6	35134	4.4	24.896488207778
6	35185	4.406	24.896488207778
6	35238	4.412	24.896488207778
6	35290	4.418	24.896488207778
6	35342	4.424	24.896488207778
6	35394	4.43	24.896488207778
6	35445	4.436	24.896488207778
6	35498	4.442	24.896488207778
6	35550	4.448	24.896488207778
6	35602	4.454	24.896488207778
6	35654	4.46	24.896488207778
6	35705	4.466	24.896488207778
6	35758	4.472	24.896488207778
6	35810	4.478	24.896488207778
6	35862	4.484	24.896488207778
6	35914	4.49	24.896488207778
6	35965	4.496	24.896488207778
6	36018	4.502	24.896488207778
6	36070	4.508	24.896488207778
6	36122	4.514	24.896488207778
6	36174	4.52	24.896488207778
6	36225	4.526	24.896488207778
6	36278	4.532	24.896488207778
6	36330	4.538	24.896488207778
6	36382	4.544	24.896488207778
6	36434	4.55	24.896488207778
6	36485	4.556	24.896488207778
6	36538	4.562	24.896488207778
6	36590	4.568	24.896488207778
6	36642	4.574	24.896488207778
6	36694	4.58	24.896488207778
6	36745	4.586	24.896488207778
6	36798	4.592	24.896488207778
6	36850	4.598	24.896488207778
6	36902	4.604	24.896488207778
6	36954	4.61	24.896488207778
6	37005	4.616	24.896488207778
6	37058	4.622	24.896488207778
6	37110	4.628	24.896488207778
6	37162	4.634	24.896488207778
6	37214	4.64	24.896488207778
6	37265	4.646	24.896488207778
6	37318	4.652	24.896488207778
6	37370	4.658	24.896488207778
6	37422	4.664	24.896488207778
6	37474	4.67	24.896488207778
6	37525	4.676	24.896488207778
6	37578	4.682	24.896488207778
6	37630	4.688	24.896488207778
6	37682	4.694	24.896488207778
6	37734	4.7	24.896488207778
6	37785	4.706	24.896488207778
6	37838	4.712	24.896488207778
6	37890	4.718	24.896488207778
6	37942	4.724	24.896488207778
6	37994	4.73	24.896488207778
6	38045	4.736	24.896488207778
6	38098	4.742	24.896488207778
6	38150	4.748	24.896488207778
6	38202	4.754	24.896488207778
6	38254	4.76	24.896488207778
6	38305	4.766	24.896488207778
6	38358	4.772	24.896488207778
6	38410	4.778	24.896488207778
6	38462	4.784	24.896488207778
6	38514	4.79	24.896488207778
6	38565	4.796	24.896488207778
6	38618	4.802	24.896488207778
6	38670	4.808	24.896488207778
6	38722	4.814	24.896488207778
6	38774	4.82	24.896488207778
6	38825	4.826	24.896488207778
6	38878	4.832	24.896488207778
6	38930	4.838	24.896488207778
6	38982	4.844	24.896488207778
6	39034	4.85	24.896488207778
6	39085	4.856	24.896488207778
6	39138	4.862	24.896488207778
6	39190	4.868	24.896488207778
6	39242	4.874	24.896488207778
6	39294	4.88	24.896488207778
6	39345	4.886	24.896488207778
6	39398	4.892	24.896488207778
6	39450	4.898	24.896488207778
6	39502	4.904	24.896488207778
6	39554	4.91	24.896488207778
6	39605	4.916	24.896488207778
6	39658	4.922	24.896488207778
6	39710	4.928	24.896488207778
6	39762	4.934	24.896488207778
6	39814	4.94	24.896488207778
6	39865	4.946	24.896488207778
6	39918	4.952	24.896488207778
6	39970	4.958	24.896488207778
6	40022	4.964	24.896488207778
6	40074	4.97	24.896488207778
6	40125	4.976	24.896488207778
6	40178	4.982	24.896488207778
6	40230	4.988	24.896488207778
6	40282	4.994	24.896488207778
6	40334	5	24.896488207778
6	40385	5.006	24.896488207778
6	40438	5.012	24.896488207778
6	40490	5.018	24.896488207778
6	40542	5.024	24.896488207778
6	40594	5.03	24.896488207778
6	40645	5.036	24.896488207778
6	40698	5.042	24.896488207778
6	40750	5.048	24.896488207778
6	40802	5.054	24.896488207778
6	40854	5.06	24.896488207778
6	40905	5.066	24.896488207778
6	40958	5.072	24.896488207778
6	41010	5.078	24.896488207778
6	41062	5.084	24.896488207778
6	41114	5.09	24.896488207778
6	41165	5.096	24.896488207778
6	41218	5.102	24.896488207778
6	41270	5.108	24.896488207778
6	41322	5.114	24.896488207778
6	41374	5.12	24.896488207778
6	41425	5.126	24.896488207778
6	41478	5.132	24.896488207778
6	41530	5.138	24.896488207778
6	41582	5.144	24.896488207778
6	41634	5.15	24.896488207778
6	41685	5.156	24.896488207778
6	41738	5.162	24.896488207778
6	41790	5.168	24.896488207778
6	41842	5.174	24.896488207778
6	41894	5.18	24.896488207778
6	41945	5.186	24.896488207778
6	41998	5.192	24.896488207778
6	42050	5.198	24.896488207778
6	42102	5.204	24.896488207778
6	42154	5.21	24.896488207778
6	42205	5.216	24.896488207778
6	42258	5.222	24.896488207778
6	42310	5.228	24.896488207778
6	42362	5.234	24.896488207778
6	42414	5.24	24.896488207778
6	42465	5.246	24.896488207778
6	42518	5.252	24.896488207778
6	42570	5.258	24.896488207778
6	42622	5.264	24.896488207778
6	42674	5.27	24.896488207778
6	42725	5.276	24.896488207778
6	42778	5.282	24.896488207778
6	42830	5.288	24.896488207778
6	42882	5.294	24.896488207778
6	42934	5.3	24.896488207778
6	42985	5.306	24.896488207778
6	43038	5.312	24.896488207778
6	43090	5.318	24.896488207778
6	43142	5.324	24.896488207778
6	43194	5.33	24.896488207778
6	43245	5.336	24.896488207778
6	43298	5.342	24.896488207778
6	43350	5.348	24.896488207778
6	43402	5.354	24.896488207778
6	43454	5.36	24.896488207778
6	43505	5.366	24.896488207778
6	43558	5.372	24.896488207778
6	43610	5.378	24.896488207778
6	43662	5.384	24.896488207778
6	43714	5.39	24.896488207778
6	43765	5.396	24.896488207778
6	43818	5.402	24.896488207778
6	43870	5.408	24.896488207778
6	43922	5.414	24.896488207778
6	43974	5.42	24.896488207778
6	44025	5.426	24.896488207778
6	44078	5.432	24.896488207778
6	44130	5.438	24.896488207778
6	44182	5.444	24.896488207778
6	44234	5.45	24.896488207778
6	44285	5.456	24.896488207778
6	44338	5.462	24.896488207778
6	44390	5.468	24.896488207778
6	44442	5.474	24.896488207778
6	44494	5.48	24.896488207778
6	44545	5.486	24.896488207778
6	44598	5.492	24.896488207778
6	44650	5.498	24.896488207778
6	44702	5.504	24.896488207778
6	44754	5.51	24.896488207778
6	44805	5.516	24.896488207778
6	44858	5.522	24.896488207778
6	44910	5.528	24.896488207778
6	44962	5.534	24.896488207778
6	45014	5.54	24.896488207778
6	45065	5.546	24.896488207778
6	45118	5.552	24.896488207778
6	45170	5.558	24.896488207778
6	45222	5.564	24.896488207778
6	45274	5.57	24.896488207778
6	45325	5.576	24.896488207778
6	45378	5.582	24.896488207778
6	45430	5.588	24.896488207778
6	45482	5.594	24.896488207778
6	45534	5.6	24.896488207778
6	45585	5.606	24.896488207778
6	45638	5.612	24.896488207778
6	45690	5.618	24.896488207778
6	45742	5.624	24.896488207778
6	45794	5.63	24.896488207778
6	45845	5.636	24.896488207778
6	45898	5.642	24.896488207778
6	45950	5.648	24.896488207778
6	46002	5.654	24.896488207778
6	46054	5.66	24.896488207778
6	46105	5.666	24.896488207778
6	46158	5.672	24.896488207778
6	46210	5.678	24.896488207778
6	46262	5.684	24.896488207778
6	46314	5.69	24.896488207778
6	46365	5.696	24.896488207778
6	46418	5.702	24.896488207778
6	46470	5.708	24.896488207778
6	46522	5.714	24.896488207778
6	46574	5.72	24.896488207778
6	46625	5.726	24.896488207778
6	46678	5.732	24.896488207778
6	46730	5.738	24.896488207778
6	46782	5.744	24.896488207778
6	46834	5.75	24.896488207778
6	46885	5.756	24.896488207778
6	46938	5.762	24.896488207778
6	46990	5.768	24.896488207778
6	47042	5.774	24.896488207778
6	47094	5.78	24.896488207778
6	47145	5.786	24.896488207778
6	47198	5.792	24.896488207778
6	47250	5.798	24.896488207778
6	47302	5.804	24.896488207778
6	47354	5.81	24.896488207778
6	47405	5.816	24.896488207778
6	47458	5.822	24.896488207778
6	47510	5.828	24.896488207778
6	47562	5.834	24.896488207778
6	47614	5.84	24.896488207778
6	47665	5.846	24.896488207778
6	47718	5.852	24.896488207778
6	47770	5.858	24.896488207778
6	47822	5.864	24.896488207778
6	47874	5.87	24.896488207778
6	47925	5.876	24.896488207778
6	47978	5.882	24.896488207778
6	48030	5.888	24.896488207778
6	48082	5.894	24.896488207778
6	48134	5.9	24.896488207778
6	48185	5.906	24.896488207778
6	48238	5.912	24.896488207778
6	48290	5.918	24.896488207778
6	48342	5.924	24.896488207778
6	48394	5.93	24.896488207778
6	48445	5.936	24.896488207778
6	48498	5.942	24.896488207778
6	48550	5.948	24.896488207778
6	48602	5.954	24.896488207778
6	48654	5.96	24.896488207778
6	48705	5.966	24.896488207778
6	48758	5.972	24.896488207778
6	48810	5.978	24.896488207778
6	48862	5.984	24.896488207778
6	48914	5.99	24.896488207778