version 2
run Double-5-20150802-15:09:19-3081
attr configname Double
attr datetime 20150802-15:09:19
attr experiment Double
attr inifile ./simulations/single/omnetpp1.ini
attr iterationvars $0=250m
attr iterationvars2 "$0=250m, $repetition=0"
attr measurement $0=250m
attr network lte_d2d.simulations.networks.onepair
attr processid 3081
attr repetition 0
attr replication #0
attr resultdir results
attr runnumber 5
attr seedset 5

vector 10  onepair.master.nic.phy  SINR_dlvect:vector  ETV
attr source  SINR_dlvect
attr title  "vector of SINR, vector"
attr unit  db
10	7	0.002	11.060031644846
10	23	0.008	11.060031644846
10	39	0.014	11.060031644846
10	55	0.02	11.060031644846
10	71	0.026	11.060031644846
10	87	0.032	11.060031644846
10	103	0.038	11.060031644846
10	119	0.044	11.060031644846
10	135	0.05	11.060031644846
10	151	0.056	11.060031644846
10	167	0.062	11.060031644846
10	183	0.068	11.060031644846
10	199	0.074	11.060031644846
10	215	0.08	11.060031644846
10	231	0.086	11.060031644846
10	247	0.092	11.060031644846
10	263	0.098	11.060031644846
10	279	0.104	11.060031644846
10	295	0.11	11.060031644846
10	311	0.116	11.060031644846
10	327	0.122	11.060031644846
10	343	0.128	11.060031644846
10	359	0.134	11.060031644846
10	375	0.14	11.060031644846
10	391	0.146	11.060031644846
10	407	0.152	11.060031644846
10	423	0.158	11.060031644846
10	439	0.164	11.060031644846
10	455	0.17	11.060031644846
10	471	0.176	11.060031644846
10	487	0.182	11.060031644846
10	503	0.188	11.060031644846
10	519	0.194	11.060031644846
10	535	0.2	11.060031644846
10	551	0.206	11.060031644846
10	567	0.212	11.060031644846
10	583	0.218	11.060031644846
10	599	0.224	11.060031644846
10	615	0.23	11.060031644846
10	631	0.236	11.060031644846
10	647	0.242	11.060031644846
10	663	0.248	11.060031644846
10	679	0.254	11.060031644846
10	695	0.26	11.060031644846
10	711	0.266	11.060031644846
10	727	0.272	11.060031644846
10	743	0.278	11.060031644846
10	759	0.284	11.060031644846
10	775	0.29	11.060031644846
10	791	0.296	11.060031644846
10	807	0.302	11.060031644846
10	823	0.308	11.060031644846
10	839	0.314	11.060031644846
10	855	0.32	11.060031644846
10	871	0.326	11.060031644846
10	887	0.332	11.060031644846
10	903	0.338	11.060031644846
10	919	0.344	11.060031644846
10	935	0.35	11.060031644846
10	951	0.356	11.060031644846
10	967	0.362	11.060031644846
10	983	0.368	11.060031644846
10	999	0.374	11.060031644846
10	1015	0.38	11.060031644846
10	1031	0.386	11.060031644846
10	1047	0.392	11.060031644846
10	1063	0.398	11.060031644846
10	1079	0.404	11.060031644846
10	1095	0.41	11.060031644846
10	1111	0.416	11.060031644846
10	1127	0.422	11.060031644846
10	1143	0.428	11.060031644846
10	1159	0.434	11.060031644846
10	1175	0.44	11.060031644846
10	1191	0.446	11.060031644846
10	1207	0.452	11.060031644846
10	1223	0.458	11.060031644846
10	1239	0.464	11.060031644846
10	1255	0.47	11.060031644846
10	1271	0.476	11.060031644846
10	1287	0.482	11.060031644846
10	1303	0.488	11.060031644846
10	1319	0.494	11.060031644846
10	1339	0.5	11.060031644846
10	1385	0.506	11.060031644846
10	1438	0.512	11.060031644846
10	1490	0.518	11.060031644846
10	1542	0.524	11.060031644846
10	1594	0.53	11.060031644846
10	1645	0.536	11.060031644846
10	1698	0.542	11.060031644846
10	1750	0.548	11.060031644846
10	1802	0.554	11.060031644846
10	1854	0.56	11.060031644846
10	1905	0.566	11.060031644846
10	1958	0.572	11.060031644846
10	2010	0.578	11.060031644846
10	2062	0.584	11.060031644846
10	2114	0.59	11.060031644846
10	2165	0.596	11.060031644846
10	2218	0.602	11.060031644846
10	2270	0.608	11.060031644846
10	2322	0.614	11.060031644846
10	2374	0.62	11.060031644846
10	2425	0.626	11.060031644846
10	2478	0.632	11.060031644846
10	2530	0.638	11.060031644846
10	2582	0.644	11.060031644846
10	2634	0.65	11.060031644846
10	2685	0.656	11.060031644846
10	2738	0.662	11.060031644846
10	2790	0.668	11.060031644846
10	2842	0.674	11.060031644846
10	2894	0.68	11.060031644846
10	2945	0.686	11.060031644846
10	2998	0.692	11.060031644846
10	3050	0.698	11.060031644846
10	3102	0.704	11.060031644846
10	3154	0.71	11.060031644846
10	3205	0.716	11.060031644846
10	3258	0.722	11.060031644846
10	3310	0.728	11.060031644846
10	3362	0.734	11.060031644846
10	3414	0.74	11.060031644846
10	3465	0.746	11.060031644846
10	3518	0.752	11.060031644846
10	3570	0.758	11.060031644846
10	3622	0.764	11.060031644846
10	3674	0.77	11.060031644846
10	3725	0.776	11.060031644846
10	3778	0.782	11.060031644846
10	3830	0.788	11.060031644846
10	3882	0.794	11.060031644846
10	3934	0.8	11.060031644846
10	3985	0.806	11.060031644846
10	4038	0.812	11.060031644846
10	4090	0.818	11.060031644846
10	4142	0.824	11.060031644846
10	4194	0.83	11.060031644846
10	4245	0.836	11.060031644846
10	4298	0.842	11.060031644846
10	4350	0.848	11.060031644846
10	4402	0.854	11.060031644846
10	4454	0.86	11.060031644846
10	4505	0.866	11.060031644846
10	4558	0.872	11.060031644846
10	4610	0.878	11.060031644846
10	4662	0.884	11.060031644846
10	4714	0.89	11.060031644846
10	4765	0.896	11.060031644846
10	4818	0.902	11.060031644846
10	4870	0.908	11.060031644846
10	4922	0.914	11.060031644846
10	4974	0.92	11.060031644846
10	5025	0.926	11.060031644846
10	5078	0.932	11.060031644846
10	5130	0.938	11.060031644846
10	5182	0.944	11.060031644846
10	5234	0.95	11.060031644846
10	5285	0.956	11.060031644846
10	5338	0.962	11.060031644846
10	5390	0.968	11.060031644846
10	5442	0.974	11.060031644846
10	5494	0.98	11.060031644846
10	5545	0.986	11.060031644846
10	5598	0.992	11.060031644846
10	5650	0.998	11.060031644846
10	5702	1.004	11.060031644846
10	5754	1.01	11.060031644846
10	5805	1.016	11.060031644846
10	5858	1.022	11.060031644846
10	5910	1.028	11.060031644846
10	5962	1.034	11.060031644846
10	6014	1.04	11.060031644846
10	6065	1.046	11.060031644846
10	6118	1.052	11.060031644846
10	6170	1.058	11.060031644846
10	6222	1.064	11.060031644846
10	6274	1.07	11.060031644846
10	6325	1.076	11.060031644846
10	6378	1.082	11.060031644846
10	6430	1.088	11.060031644846
10	6482	1.094	11.060031644846
10	6534	1.1	11.060031644846
10	6585	1.106	11.060031644846
10	6638	1.112	11.060031644846
10	6690	1.118	11.060031644846
10	6742	1.124	11.060031644846
10	6794	1.13	11.060031644846
10	6845	1.136	11.060031644846
10	6898	1.142	11.060031644846
10	6950	1.148	11.060031644846
10	7002	1.154	11.060031644846
10	7054	1.16	11.060031644846
10	7105	1.166	11.060031644846
10	7158	1.172	11.060031644846
10	7210	1.178	11.060031644846
10	7262	1.184	11.060031644846
10	7314	1.19	11.060031644846
10	7365	1.196	11.060031644846
10	7418	1.202	11.060031644846
10	7470	1.208	11.060031644846
10	7522	1.214	11.060031644846
10	7574	1.22	11.060031644846
10	7625	1.226	11.060031644846
10	7678	1.232	11.060031644846
10	7730	1.238	11.060031644846
10	7782	1.244	11.060031644846
10	7834	1.25	11.060031644846
10	7885	1.256	11.060031644846
10	7938	1.262	11.060031644846
10	7990	1.268	11.060031644846
10	8042	1.274	11.060031644846
10	8094	1.28	11.060031644846
10	8145	1.286	11.060031644846
10	8198	1.292	11.060031644846
10	8250	1.298	11.060031644846
10	8302	1.304	11.060031644846
10	8354	1.31	11.060031644846
10	8405	1.316	11.060031644846
10	8458	1.322	11.060031644846
10	8510	1.328	11.060031644846
10	8562	1.334	11.060031644846
10	8614	1.34	11.060031644846
10	8665	1.346	11.060031644846
10	8718	1.352	11.060031644846
10	8770	1.358	11.060031644846
10	8822	1.364	11.060031644846
10	8874	1.37	11.060031644846
10	8925	1.376	11.060031644846
10	8978	1.382	11.060031644846
10	9030	1.388	11.060031644846
10	9082	1.394	11.060031644846
10	9134	1.4	11.060031644846
10	9185	1.406	11.060031644846
10	9238	1.412	11.060031644846
10	9290	1.418	11.060031644846
10	9342	1.424	11.060031644846
10	9394	1.43	11.060031644846
10	9445	1.436	11.060031644846
10	9498	1.442	11.060031644846
10	9550	1.448	11.060031644846
10	9602	1.454	11.060031644846
10	9654	1.46	11.060031644846
10	9705	1.466	11.060031644846
10	9758	1.472	11.060031644846
10	9810	1.478	11.060031644846
10	9862	1.484	11.060031644846
10	9914	1.49	11.060031644846
10	9965	1.496	11.060031644846
10	10018	1.502	11.060031644846
10	10070	1.508	11.060031644846
10	10122	1.514	11.060031644846
10	10174	1.52	11.060031644846
10	10225	1.526	11.060031644846
10	10278	1.532	11.060031644846
10	10330	1.538	11.060031644846
10	10382	1.544	11.060031644846
10	10434	1.55	11.060031644846
10	10485	1.556	11.060031644846
10	10538	1.562	11.060031644846
10	10590	1.568	11.060031644846
10	10642	1.574	11.060031644846
10	10694	1.58	11.060031644846
10	10745	1.586	11.060031644846
10	10798	1.592	11.060031644846
10	10850	1.598	11.060031644846
10	10902	1.604	11.060031644846
10	10954	1.61	11.060031644846
10	11005	1.616	11.060031644846
10	11058	1.622	11.060031644846
10	11110	1.628	11.060031644846
10	11162	1.634	11.060031644846
10	11214	1.64	11.060031644846
10	11265	1.646	11.060031644846
10	11318	1.652	11.060031644846
10	11370	1.658	11.060031644846
10	11422	1.664	11.060031644846
10	11474	1.67	11.060031644846
10	11525	1.676	11.060031644846
10	11578	1.682	11.060031644846
10	11630	1.688	11.060031644846
10	11682	1.694	11.060031644846
10	11734	1.7	11.060031644846
10	11785	1.706	11.060031644846
10	11838	1.712	11.060031644846
10	11890	1.718	11.060031644846
10	11942	1.724	11.060031644846
10	11994	1.73	11.060031644846
10	12045	1.736	11.060031644846
10	12098	1.742	11.060031644846
10	12150	1.748	11.060031644846
10	12202	1.754	11.060031644846
10	12254	1.76	11.060031644846
10	12305	1.766	11.060031644846
10	12358	1.772	11.060031644846
10	12410	1.778	11.060031644846
10	12462	1.784	11.060031644846
10	12514	1.79	11.060031644846
10	12565	1.796	11.060031644846
10	12618	1.802	11.060031644846
10	12670	1.808	11.060031644846
10	12722	1.814	11.060031644846
10	12774	1.82	11.060031644846
10	12825	1.826	11.060031644846
10	12878	1.832	11.060031644846
10	12930	1.838	11.060031644846
10	12982	1.844	11.060031644846
10	13034	1.85	11.060031644846
10	13085	1.856	11.060031644846
10	13138	1.862	11.060031644846
10	13190	1.868	11.060031644846
10	13242	1.874	11.060031644846
10	13294	1.88	11.060031644846
10	13345	1.886	11.060031644846
10	13398	1.892	11.060031644846
10	13450	1.898	11.060031644846
10	13502	1.904	11.060031644846
10	13554	1.91	11.060031644846
10	13605	1.916	11.060031644846
10	13658	1.922	11.060031644846
10	13710	1.928	11.060031644846
10	13762	1.934	11.060031644846
10	13814	1.94	11.060031644846
10	13865	1.946	11.060031644846
10	13918	1.952	11.060031644846
10	13970	1.958	11.060031644846
10	14022	1.964	11.060031644846
10	14074	1.97	11.060031644846
10	14125	1.976	11.060031644846
10	14178	1.982	11.060031644846
10	14230	1.988	11.060031644846
10	14282	1.994	11.060031644846
10	14334	2	11.060031644846
10	14385	2.006	11.060031644846
10	14438	2.012	11.060031644846
10	14490	2.018	11.060031644846
10	14542	2.024	11.060031644846
10	14594	2.03	11.060031644846
10	14645	2.036	11.060031644846
10	14698	2.042	11.060031644846
10	14750	2.048	11.060031644846
10	14802	2.054	11.060031644846
10	14854	2.06	11.060031644846
10	14905	2.066	11.060031644846
10	14958	2.072	11.060031644846
10	15010	2.078	11.060031644846
10	15062	2.084	11.060031644846
10	15114	2.09	11.060031644846
10	15165	2.096	11.060031644846
10	15218	2.102	11.060031644846
10	15270	2.108	11.060031644846
10	15322	2.114	11.060031644846
10	15374	2.12	11.060031644846
10	15425	2.126	11.060031644846
10	15478	2.132	11.060031644846
10	15530	2.138	11.060031644846
10	15582	2.144	11.060031644846
10	15634	2.15	11.060031644846
10	15685	2.156	11.060031644846
10	15738	2.162	11.060031644846
10	15790	2.168	11.060031644846
10	15842	2.174	11.060031644846
10	15894	2.18	11.060031644846
10	15945	2.186	11.060031644846
10	15998	2.192	11.060031644846
10	16050	2.198	11.060031644846
10	16102	2.204	11.060031644846
10	16154	2.21	11.060031644846
10	16205	2.216	11.060031644846
10	16258	2.222	11.060031644846
10	16310	2.228	11.060031644846
10	16362	2.234	11.060031644846
10	16414	2.24	11.060031644846
10	16465	2.246	11.060031644846
10	16518	2.252	11.060031644846
10	16570	2.258	11.060031644846
10	16622	2.264	11.060031644846
10	16674	2.27	11.060031644846
10	16725	2.276	11.060031644846
10	16778	2.282	11.060031644846
10	16830	2.288	11.060031644846
10	16882	2.294	11.060031644846
10	16934	2.3	11.060031644846
10	16985	2.306	11.060031644846
10	17038	2.312	11.060031644846
10	17090	2.318	11.060031644846
10	17142	2.324	11.060031644846
10	17194	2.33	11.060031644846
10	17245	2.336	11.060031644846
10	17298	2.342	11.060031644846
10	17350	2.348	11.060031644846
10	17402	2.354	11.060031644846
10	17454	2.36	11.060031644846
10	17505	2.366	11.060031644846
10	17558	2.372	11.060031644846
10	17610	2.378	11.060031644846
10	17662	2.384	11.060031644846
10	17714	2.39	11.060031644846
10	17765	2.396	11.060031644846
10	17818	2.402	11.060031644846
10	17870	2.408	11.060031644846
10	17922	2.414	11.060031644846
10	17974	2.42	11.060031644846
10	18025	2.426	11.060031644846
10	18078	2.432	11.060031644846
10	18130	2.438	11.060031644846
10	18182	2.444	11.060031644846
10	18234	2.45	11.060031644846
10	18285	2.456	11.060031644846
10	18338	2.462	11.060031644846
10	18390	2.468	11.060031644846
10	18442	2.474	11.060031644846
10	18494	2.48	11.060031644846
10	18545	2.486	11.060031644846
10	18598	2.492	11.060031644846
10	18650	2.498	11.060031644846
10	18702	2.504	11.060031644846
10	18754	2.51	11.060031644846
10	18805	2.516	11.060031644846
10	18858	2.522	11.060031644846
10	18910	2.528	11.060031644846
10	18962	2.534	11.060031644846
10	19014	2.54	11.060031644846
10	19065	2.546	11.060031644846
10	19118	2.552	11.060031644846
10	19170	2.558	11.060031644846
10	19222	2.564	11.060031644846
10	19274	2.57	11.060031644846
10	19325	2.576	11.060031644846
10	19378	2.582	11.060031644846
10	19430	2.588	11.060031644846
10	19482	2.594	11.060031644846
10	19534	2.6	11.060031644846
10	19585	2.606	11.060031644846
10	19638	2.612	11.060031644846
10	19690	2.618	11.060031644846
10	19742	2.624	11.060031644846
10	19794	2.63	11.060031644846
10	19845	2.636	11.060031644846
10	19898	2.642	11.060031644846
10	19950	2.648	11.060031644846
10	20002	2.654	11.060031644846
10	20054	2.66	11.060031644846
10	20105	2.666	11.060031644846
10	20158	2.672	11.060031644846
10	20210	2.678	11.060031644846
10	20262	2.684	11.060031644846
10	20314	2.69	11.060031644846
10	20365	2.696	11.060031644846
10	20418	2.702	11.060031644846
10	20470	2.708	11.060031644846
10	20522	2.714	11.060031644846
10	20574	2.72	11.060031644846
10	20625	2.726	11.060031644846
10	20678	2.732	11.060031644846
10	20730	2.738	11.060031644846
10	20782	2.744	11.060031644846
10	20834	2.75	11.060031644846
10	20885	2.756	11.060031644846
10	20938	2.762	11.060031644846
10	20990	2.768	11.060031644846
10	21042	2.774	11.060031644846
10	21094	2.78	11.060031644846
10	21145	2.786	11.060031644846
10	21198	2.792	11.060031644846
10	21250	2.798	11.060031644846
10	21302	2.804	11.060031644846
10	21354	2.81	11.060031644846
10	21405	2.816	11.060031644846
10	21458	2.822	11.060031644846
10	21510	2.828	11.060031644846
10	21562	2.834	11.060031644846
10	21614	2.84	11.060031644846
10	21665	2.846	11.060031644846
10	21718	2.852	11.060031644846
10	21770	2.858	11.060031644846
10	21822	2.864	11.060031644846
10	21874	2.87	11.060031644846
10	21925	2.876	11.060031644846
10	21978	2.882	11.060031644846
10	22030	2.888	11.060031644846
10	22082	2.894	11.060031644846
10	22134	2.9	11.060031644846
10	22185	2.906	11.060031644846
10	22238	2.912	11.060031644846
10	22290	2.918	11.060031644846
10	22342	2.924	11.060031644846
10	22394	2.93	11.060031644846
10	22445	2.936	11.060031644846
10	22498	2.942	11.060031644846
10	22550	2.948	11.060031644846
10	22602	2.954	11.060031644846
10	22654	2.96	11.060031644846
10	22705	2.966	11.060031644846
10	22758	2.972	11.060031644846
10	22810	2.978	11.060031644846
10	22862	2.984	11.060031644846
10	22914	2.99	11.060031644846
10	22965	2.996	11.060031644846
10	23018	3.002	11.060031644846
10	23070	3.008	11.060031644846
10	23122	3.014	11.060031644846
10	23174	3.02	11.060031644846
10	23225	3.026	11.060031644846
10	23278	3.032	11.060031644846
10	23330	3.038	11.060031644846
10	23382	3.044	11.060031644846
10	23434	3.05	11.060031644846
10	23485	3.056	11.060031644846
10	23538	3.062	11.060031644846
10	23590	3.068	11.060031644846
10	23642	3.074	11.060031644846
10	23694	3.08	11.060031644846
10	23745	3.086	11.060031644846
10	23798	3.092	11.060031644846
10	23850	3.098	11.060031644846
10	23902	3.104	11.060031644846
10	23954	3.11	11.060031644846
10	24005	3.116	11.060031644846
10	24058	3.122	11.060031644846
10	24110	3.128	11.060031644846
10	24162	3.134	11.060031644846
10	24214	3.14	11.060031644846
10	24265	3.146	11.060031644846
10	24318	3.152	11.060031644846
10	24370	3.158	11.060031644846
10	24422	3.164	11.060031644846
10	24474	3.17	11.060031644846
10	24525	3.176	11.060031644846
10	24578	3.182	11.060031644846
10	24630	3.188	11.060031644846
10	24682	3.194	11.060031644846
10	24734	3.2	11.060031644846
10	24785	3.206	11.060031644846
10	24838	3.212	11.060031644846
10	24890	3.218	11.060031644846
10	24942	3.224	11.060031644846
10	24994	3.23	11.060031644846
10	25045	3.236	11.060031644846
10	25098	3.242	11.060031644846
10	25150	3.248	11.060031644846
10	25202	3.254	11.060031644846
10	25254	3.26	11.060031644846
10	25305	3.266	11.060031644846
10	25358	3.272	11.060031644846
10	25410	3.278	11.060031644846
10	25462	3.284	11.060031644846
10	25514	3.29	11.060031644846
10	25565	3.296	11.060031644846
10	25618	3.302	11.060031644846
10	25670	3.308	11.060031644846
10	25722	3.314	11.060031644846
10	25774	3.32	11.060031644846
10	25825	3.326	11.060031644846
10	25878	3.332	11.060031644846
10	25930	3.338	11.060031644846
10	25982	3.344	11.060031644846
10	26034	3.35	11.060031644846
10	26085	3.356	11.060031644846
10	26138	3.362	11.060031644846
10	26190	3.368	11.060031644846
10	26242	3.374	11.060031644846
10	26294	3.38	11.060031644846
10	26345	3.386	11.060031644846
10	26398	3.392	11.060031644846
10	26450	3.398	11.060031644846
10	26502	3.404	11.060031644846
10	26554	3.41	11.060031644846
10	26605	3.416	11.060031644846
10	26658	3.422	11.060031644846
10	26710	3.428	11.060031644846
10	26762	3.434	11.060031644846
10	26814	3.44	11.060031644846
10	26865	3.446	11.060031644846
10	26918	3.452	11.060031644846
10	26970	3.458	11.060031644846
10	27022	3.464	11.060031644846
10	27074	3.47	11.060031644846
10	27125	3.476	11.060031644846
10	27178	3.482	11.060031644846
10	27230	3.488	11.060031644846
10	27282	3.494	11.060031644846
10	27334	3.5	11.060031644846
10	27385	3.506	11.060031644846
10	27438	3.512	11.060031644846
10	27490	3.518	11.060031644846
10	27542	3.524	11.060031644846
10	27594	3.53	11.060031644846
10	27645	3.536	11.060031644846
10	27698	3.542	11.060031644846
10	27750	3.548	11.060031644846
10	27802	3.554	11.060031644846
10	27854	3.56	11.060031644846
10	27905	3.566	11.060031644846
10	27958	3.572	11.060031644846
10	28010	3.578	11.060031644846
10	28062	3.584	11.060031644846
10	28114	3.59	11.060031644846
10	28165	3.596	11.060031644846
10	28218	3.602	11.060031644846
10	28270	3.608	11.060031644846
10	28322	3.614	11.060031644846
10	28374	3.62	11.060031644846
10	28425	3.626	11.060031644846
10	28478	3.632	11.060031644846
10	28530	3.638	11.060031644846
10	28582	3.644	11.060031644846
10	28634	3.65	11.060031644846
10	28685	3.656	11.060031644846
10	28738	3.662	11.060031644846
10	28790	3.668	11.060031644846
10	28842	3.674	11.060031644846
10	28894	3.68	11.060031644846
10	28945	3.686	11.060031644846
10	28998	3.692	11.060031644846
10	29050	3.698	11.060031644846
10	29102	3.704	11.060031644846
10	29154	3.71	11.060031644846
10	29205	3.716	11.060031644846
10	29258	3.722	11.060031644846
10	29310	3.728	11.060031644846
10	29362	3.734	11.060031644846
10	29414	3.74	11.060031644846
10	29465	3.746	11.060031644846
10	29518	3.752	11.060031644846
10	29570	3.758	11.060031644846
10	29622	3.764	11.060031644846
10	29674	3.77	11.060031644846
10	29725	3.776	11.060031644846
10	29778	3.782	11.060031644846
10	29830	3.788	11.060031644846
10	29882	3.794	11.060031644846
10	29934	3.8	11.060031644846
10	29985	3.806	11.060031644846
10	30038	3.812	11.060031644846
10	30090	3.818	11.060031644846
10	30142	3.824	11.060031644846
10	30194	3.83	11.060031644846
10	30245	3.836	11.060031644846
10	30298	3.842	11.060031644846
10	30350	3.848	11.060031644846
10	30402	3.854	11.060031644846
10	30454	3.86	11.060031644846
10	30505	3.866	11.060031644846
10	30558	3.872	11.060031644846
10	30610	3.878	11.060031644846
10	30662	3.884	11.060031644846
10	30714	3.89	11.060031644846
10	30765	3.896	11.060031644846
10	30818	3.902	11.060031644846
10	30870	3.908	11.060031644846
10	30922	3.914	11.060031644846
10	30974	3.92	11.060031644846
10	31025	3.926	11.060031644846
10	31078	3.932	11.060031644846
10	31130	3.938	11.060031644846
10	31182	3.944	11.060031644846
10	31234	3.95	11.060031644846
10	31285	3.956	11.060031644846
10	31338	3.962	11.060031644846
10	31390	3.968	11.060031644846
10	31442	3.974	11.060031644846
10	31494	3.98	11.060031644846
10	31545	3.986	11.060031644846
10	31598	3.992	11.060031644846
10	31650	3.998	11.060031644846
10	31702	4.004	11.060031644846
10	31754	4.01	11.060031644846
10	31805	4.016	11.060031644846
10	31858	4.022	11.060031644846
10	31910	4.028	11.060031644846
10	31962	4.034	11.060031644846
10	32014	4.04	11.060031644846
10	32065	4.046	11.060031644846
10	32118	4.052	11.060031644846
10	32170	4.058	11.060031644846
10	32222	4.064	11.060031644846
10	32274	4.07	11.060031644846
10	32325	4.076	11.060031644846
10	32378	4.082	11.060031644846
10	32430	4.088	11.060031644846
10	32482	4.094	11.060031644846
10	32534	4.1	11.060031644846
10	32585	4.106	11.060031644846
10	32638	4.112	11.060031644846
10	32690	4.118	11.060031644846
10	32742	4.124	11.060031644846
10	32794	4.13	11.060031644846
10	32845	4.136	11.060031644846
10	32898	4.142	11.060031644846
10	32950	4.148	11.060031644846
10	33002	4.154	11.060031644846
10	33054	4.16	11.060031644846
10	33105	4.166	11.060031644846
10	33158	4.172	11.060031644846
10	33210	4.178	11.060031644846
10	33262	4.184	11.060031644846
10	33314	4.19	11.060031644846
10	33365	4.196	11.060031644846
10	33418	4.202	11.060031644846
10	33470	4.208	11.060031644846
10	33522	4.214	11.060031644846
10	33574	4.22	11.060031644846
10	33625	4.226	11.060031644846
10	33678	4.232	11.060031644846
10	33730	4.238	11.060031644846
10	33782	4.244	11.060031644846
10	33834	4.25	11.060031644846
10	33885	4.256	11.060031644846
10	33938	4.262	11.060031644846
10	33990	4.268	11.060031644846
10	34042	4.274	11.060031644846
10	34094	4.28	11.060031644846
10	34145	4.286	11.060031644846
10	34198	4.292	11.060031644846
10	34250	4.298	11.060031644846
10	34302	4.304	11.060031644846
10	34354	4.31	11.060031644846
10	34405	4.316	11.060031644846
10	34458	4.322	11.060031644846
10	34510	4.328	11.060031644846
10	34562	4.334	11.060031644846
10	34614	4.34	11.060031644846
10	34665	4.346	11.060031644846
10	34718	4.352	11.060031644846
10	34770	4.358	11.060031644846
10	34822	4.364	11.060031644846
10	34874	4.37	11.060031644846
10	34925	4.376	11.060031644846
10	34978	4.382	11.060031644846
10	35030	4.388	11.060031644846
10	35082	4.394	11.060031644846
10	35134	4.4	11.060031644846
10	35185	4.406	11.060031644846
10	35238	4.412	11.060031644846
10	35290	4.418	11.060031644846
10	35342	4.424	11.060031644846
10	35394	4.43	11.060031644846
10	35445	4.436	11.060031644846
10	35498	4.442	11.060031644846
10	35550	4.448	11.060031644846
10	35602	4.454	11.060031644846
10	35654	4.46	11.060031644846
10	35705	4.466	11.060031644846
10	35758	4.472	11.060031644846
10	35810	4.478	11.060031644846
10	35862	4.484	11.060031644846
10	35914	4.49	11.060031644846
10	35965	4.496	11.060031644846
10	36018	4.502	11.060031644846
10	36070	4.508	11.060031644846
10	36122	4.514	11.060031644846
10	36174	4.52	11.060031644846
10	36225	4.526	11.060031644846
10	36278	4.532	11.060031644846
10	36330	4.538	11.060031644846
10	36382	4.544	11.060031644846
10	36434	4.55	11.060031644846
10	36485	4.556	11.060031644846
10	36538	4.562	11.060031644846
10	36590	4.568	11.060031644846
10	36642	4.574	11.060031644846
10	36694	4.58	11.060031644846
10	36745	4.586	11.060031644846
10	36798	4.592	11.060031644846
10	36850	4.598	11.060031644846
10	36902	4.604	11.060031644846
10	36954	4.61	11.060031644846
10	37005	4.616	11.060031644846
10	37058	4.622	11.060031644846
10	37110	4.628	11.060031644846
10	37162	4.634	11.060031644846
10	37214	4.64	11.060031644846
10	37265	4.646	11.060031644846
10	37318	4.652	11.060031644846
10	37370	4.658	11.060031644846
10	37422	4.664	11.060031644846
10	37474	4.67	11.060031644846
10	37525	4.676	11.060031644846
10	37578	4.682	11.060031644846
10	37630	4.688	11.060031644846
10	37682	4.694	11.060031644846
10	37734	4.7	11.060031644846
10	37785	4.706	11.060031644846
10	37838	4.712	11.060031644846
10	37890	4.718	11.060031644846
10	37942	4.724	11.060031644846
10	37994	4.73	11.060031644846
10	38045	4.736	11.060031644846
10	38098	4.742	11.060031644846
10	38150	4.748	11.060031644846
10	38202	4.754	11.060031644846
10	38254	4.76	11.060031644846
10	38305	4.766	11.060031644846
10	38358	4.772	11.060031644846
10	38410	4.778	11.060031644846
10	38462	4.784	11.060031644846
10	38514	4.79	11.060031644846
10	38565	4.796	11.060031644846
10	38618	4.802	11.060031644846
10	38670	4.808	11.060031644846
10	38722	4.814	11.060031644846
10	38774	4.82	11.060031644846
10	38825	4.826	11.060031644846
10	38878	4.832	11.060031644846
10	38930	4.838	11.060031644846
10	38982	4.844	11.060031644846
10	39034	4.85	11.060031644846
10	39085	4.856	11.060031644846
10	39138	4.862	11.060031644846
10	39190	4.868	11.060031644846
10	39242	4.874	11.060031644846
10	39294	4.88	11.060031644846
10	39345	4.886	11.060031644846
10	39398	4.892	11.060031644846
10	39450	4.898	11.060031644846
10	39502	4.904	11.060031644846
10	39554	4.91	11.060031644846
10	39605	4.916	11.060031644846
10	39658	4.922	11.060031644846
10	39710	4.928	11.060031644846
10	39762	4.934	11.060031644846
10	39814	4.94	11.060031644846
10	39865	4.946	11.060031644846
10	39918	4.952	11.060031644846
10	39970	4.958	11.060031644846
10	40022	4.964	11.060031644846
10	40074	4.97	11.060031644846
10	40125	4.976	11.060031644846
10	40178	4.982	11.060031644846
10	40230	4.988	11.060031644846
10	40282	4.994	11.060031644846
10	40334	5	11.060031644846
10	40385	5.006	11.060031644846
10	40438	5.012	11.060031644846
10	40490	5.018	11.060031644846
10	40542	5.024	11.060031644846
10	40594	5.03	11.060031644846
10	40645	5.036	11.060031644846
10	40698	5.042	11.060031644846
10	40750	5.048	11.060031644846
10	40802	5.054	11.060031644846
10	40854	5.06	11.060031644846
10	40905	5.066	11.060031644846
10	40958	5.072	11.060031644846
10	41010	5.078	11.060031644846
10	41062	5.084	11.060031644846
10	41114	5.09	11.060031644846
10	41165	5.096	11.060031644846
10	41218	5.102	11.060031644846
10	41270	5.108	11.060031644846
10	41322	5.114	11.060031644846
10	41374	5.12	11.060031644846
10	41425	5.126	11.060031644846
10	41478	5.132	11.060031644846
10	41530	5.138	11.060031644846
10	41582	5.144	11.060031644846
10	41634	5.15	11.060031644846
10	41685	5.156	11.060031644846
10	41738	5.162	11.060031644846
10	41790	5.168	11.060031644846
10	41842	5.174	11.060031644846
10	41894	5.18	11.060031644846
10	41945	5.186	11.060031644846
10	41998	5.192	11.060031644846
10	42050	5.198	11.060031644846
10	42102	5.204	11.060031644846
10	42154	5.21	11.060031644846
10	42205	5.216	11.060031644846
10	42258	5.222	11.060031644846
10	42310	5.228	11.060031644846
10	42362	5.234	11.060031644846
10	42414	5.24	11.060031644846
10	42465	5.246	11.060031644846
10	42518	5.252	11.060031644846
10	42570	5.258	11.060031644846
10	42622	5.264	11.060031644846
10	42674	5.27	11.060031644846
10	42725	5.276	11.060031644846
10	42778	5.282	11.060031644846
10	42830	5.288	11.060031644846
10	42882	5.294	11.060031644846
10	42934	5.3	11.060031644846
10	42985	5.306	11.060031644846
10	43038	5.312	11.060031644846
10	43090	5.318	11.060031644846
10	43142	5.324	11.060031644846
10	43194	5.33	11.060031644846
10	43245	5.336	11.060031644846
10	43298	5.342	11.060031644846
10	43350	5.348	11.060031644846
10	43402	5.354	11.060031644846
10	43454	5.36	11.060031644846
10	43505	5.366	11.060031644846
10	43558	5.372	11.060031644846
10	43610	5.378	11.060031644846
10	43662	5.384	11.060031644846
10	43714	5.39	11.060031644846
10	43765	5.396	11.060031644846
10	43818	5.402	11.060031644846
10	43870	5.408	11.060031644846
10	43922	5.414	11.060031644846
10	43974	5.42	11.060031644846
10	44025	5.426	11.060031644846
10	44078	5.432	11.060031644846
10	44130	5.438	11.060031644846
10	44182	5.444	11.060031644846
10	44234	5.45	11.060031644846
10	44285	5.456	11.060031644846
10	44338	5.462	11.060031644846
10	44390	5.468	11.060031644846
10	44442	5.474	11.060031644846
10	44494	5.48	11.060031644846
10	44545	5.486	11.060031644846
10	44598	5.492	11.060031644846
10	44650	5.498	11.060031644846
10	44702	5.504	11.060031644846
10	44754	5.51	11.060031644846
10	44805	5.516	11.060031644846
10	44858	5.522	11.060031644846
10	44910	5.528	11.060031644846
10	44962	5.534	11.060031644846
10	45014	5.54	11.060031644846
10	45065	5.546	11.060031644846
10	45118	5.552	11.060031644846
10	45170	5.558	11.060031644846
10	45222	5.564	11.060031644846
10	45274	5.57	11.060031644846
10	45325	5.576	11.060031644846
10	45378	5.582	11.060031644846
10	45430	5.588	11.060031644846
10	45482	5.594	11.060031644846
10	45534	5.6	11.060031644846
10	45585	5.606	11.060031644846
10	45638	5.612	11.060031644846
10	45690	5.618	11.060031644846
10	45742	5.624	11.060031644846
10	45794	5.63	11.060031644846
10	45845	5.636	11.060031644846
10	45898	5.642	11.060031644846
10	45950	5.648	11.060031644846
10	46002	5.654	11.060031644846
10	46054	5.66	11.060031644846
10	46105	5.666	11.060031644846
10	46158	5.672	11.060031644846
10	46210	5.678	11.060031644846
10	46262	5.684	11.060031644846
10	46314	5.69	11.060031644846
10	46365	5.696	11.060031644846
10	46418	5.702	11.060031644846
10	46470	5.708	11.060031644846
10	46522	5.714	11.060031644846
10	46574	5.72	11.060031644846
10	46625	5.726	11.060031644846
10	46678	5.732	11.060031644846
10	46730	5.738	11.060031644846
10	46782	5.744	11.060031644846
10	46834	5.75	11.060031644846
10	46885	5.756	11.060031644846
10	46938	5.762	11.060031644846
10	46990	5.768	11.060031644846
10	47042	5.774	11.060031644846
10	47094	5.78	11.060031644846
10	47145	5.786	11.060031644846
10	47198	5.792	11.060031644846