version 2
run Double-0-20150802-15:09:01-3081
attr configname Double
attr datetime 20150802-15:09:01
attr experiment Double
attr inifile ./simulations/single/omnetpp1.ini
attr iterationvars $0=10m
attr iterationvars2 "$0=10m, $repetition=0"
attr measurement $0=10m
attr network lte_d2d.simulations.networks.onepair
attr processid 3081
attr repetition 0
attr replication #0
attr resultdir results
attr runnumber 0
attr seedset 0

vector 0  onepair.master.nic.phy  SINR_dlvect:vector  ETV
attr source  SINR_dlvect
attr title  "vector of SINR, vector"
attr unit  db
0	7	0.002	72.689904477321
0	23	0.008	72.689904477321
0	39	0.014	72.689904477321
0	55	0.02	72.689904477321
0	71	0.026	72.689904477321
0	87	0.032	72.689904477321
0	103	0.038	72.689904477321
0	119	0.044	72.689904477321
0	135	0.05	72.689904477321
0	151	0.056	72.689904477321
0	167	0.062	72.689904477321
0	183	0.068	72.689904477321
0	199	0.074	72.689904477321
0	215	0.08	72.689904477321
0	231	0.086	72.689904477321
0	247	0.092	72.689904477321
0	263	0.098	72.689904477321
0	279	0.104	72.689904477321
0	295	0.11	72.689904477321
0	311	0.116	72.689904477321
0	327	0.122	72.689904477321
0	343	0.128	72.689904477321
0	359	0.134	72.689904477321
0	375	0.14	72.689904477321
0	391	0.146	72.689904477321
0	407	0.152	72.689904477321
0	423	0.158	72.689904477321
0	439	0.164	72.689904477321
0	455	0.17	72.689904477321
0	471	0.176	72.689904477321
0	487	0.182	72.689904477321
0	503	0.188	72.689904477321
0	519	0.194	72.689904477321
0	535	0.2	72.689904477321
0	551	0.206	72.689904477321
0	567	0.212	72.689904477321
0	583	0.218	72.689904477321
0	599	0.224	72.689904477321
0	615	0.23	72.689904477321
0	631	0.236	72.689904477321
0	647	0.242	72.689904477321
0	663	0.248	72.689904477321
0	679	0.254	72.689904477321
0	695	0.26	72.689904477321
0	711	0.266	72.689904477321
0	727	0.272	72.689904477321
0	743	0.278	72.689904477321
0	759	0.284	72.689904477321
0	775	0.29	72.689904477321
0	791	0.296	72.689904477321
0	807	0.302	72.689904477321
0	823	0.308	72.689904477321
0	839	0.314	72.689904477321
0	855	0.32	72.689904477321
0	871	0.326	72.689904477321
0	887	0.332	72.689904477321
0	903	0.338	72.689904477321
0	919	0.344	72.689904477321
0	935	0.35	72.689904477321
0	951	0.356	72.689904477321
0	967	0.362	72.689904477321
0	983	0.368	72.689904477321
0	999	0.374	72.689904477321
0	1015	0.38	72.689904477321
0	1031	0.386	72.689904477321
0	1047	0.392	72.689904477321
0	1063	0.398	72.689904477321
0	1079	0.404	72.689904477321
0	1095	0.41	72.689904477321
0	1111	0.416	72.689904477321
0	1127	0.422	72.689904477321
0	1143	0.428	72.689904477321
0	1159	0.434	72.689904477321
0	1175	0.44	72.689904477321
0	1191	0.446	72.689904477321
0	1207	0.452	72.689904477321
0	1223	0.458	72.689904477321
0	1239	0.464	72.689904477321
0	1255	0.47	72.689904477321
0	1271	0.476	72.689904477321
0	1287	0.482	72.689904477321
0	1303	0.488	72.689904477321
0	1319	0.494	72.689904477321
0	1339	0.5	72.689904477321
0	1385	0.506	72.689904477321
0	1438	0.512	72.689904477321
0	1490	0.518	72.689904477321
0	1542	0.524	72.689904477321
0	1594	0.53	72.689904477321
0	1645	0.536	72.689904477321
0	1698	0.542	72.689904477321
0	1750	0.548	72.689904477321
0	1802	0.554	72.689904477321
0	1854	0.56	72.689904477321
0	1905	0.566	72.689904477321
0	1958	0.572	72.689904477321
0	2010	0.578	72.689904477321
0	2062	0.584	72.689904477321
0	2114	0.59	72.689904477321
0	2165	0.596	72.689904477321
0	2218	0.602	72.689904477321
0	2270	0.608	72.689904477321
0	2322	0.614	72.689904477321
0	2374	0.62	72.689904477321
0	2425	0.626	72.689904477321
0	2478	0.632	72.689904477321
0	2530	0.638	72.689904477321
0	2582	0.644	72.689904477321
0	2634	0.65	72.689904477321
0	2685	0.656	72.689904477321
0	2738	0.662	72.689904477321
0	2790	0.668	72.689904477321
0	2842	0.674	72.689904477321
0	2894	0.68	72.689904477321
0	2945	0.686	72.689904477321
0	2998	0.692	72.689904477321
0	3050	0.698	72.689904477321
0	3102	0.704	72.689904477321
0	3154	0.71	72.689904477321
0	3205	0.716	72.689904477321
0	3258	0.722	72.689904477321
0	3310	0.728	72.689904477321
0	3362	0.734	72.689904477321
0	3414	0.74	72.689904477321
0	3465	0.746	72.689904477321
0	3518	0.752	72.689904477321
0	3570	0.758	72.689904477321
0	3622	0.764	72.689904477321
0	3674	0.77	72.689904477321
0	3725	0.776	72.689904477321
0	3778	0.782	72.689904477321
0	3830	0.788	72.689904477321
0	3882	0.794	72.689904477321
0	3934	0.8	72.689904477321
0	3985	0.806	72.689904477321
0	4038	0.812	72.689904477321
0	4090	0.818	72.689904477321
0	4142	0.824	72.689904477321
0	4194	0.83	72.689904477321
0	4245	0.836	72.689904477321
0	4298	0.842	72.689904477321
0	4350	0.848	72.689904477321
0	4402	0.854	72.689904477321
0	4454	0.86	72.689904477321
0	4505	0.866	72.689904477321
0	4558	0.872	72.689904477321
0	4610	0.878	72.689904477321
0	4662	0.884	72.689904477321
0	4714	0.89	72.689904477321
0	4765	0.896	72.689904477321
0	4818	0.902	72.689904477321
0	4870	0.908	72.689904477321
0	4922	0.914	72.689904477321
0	4974	0.92	72.689904477321
0	5025	0.926	72.689904477321
0	5078	0.932	72.689904477321
0	5130	0.938	72.689904477321
0	5182	0.944	72.689904477321
0	5234	0.95	72.689904477321
0	5285	0.956	72.689904477321
0	5338	0.962	72.689904477321
0	5390	0.968	72.689904477321
0	5442	0.974	72.689904477321
0	5494	0.98	72.689904477321
0	5545	0.986	72.689904477321
0	5598	0.992	72.689904477321
0	5650	0.998	72.689904477321
0	5702	1.004	72.689904477321
0	5754	1.01	72.689904477321
0	5805	1.016	72.689904477321
0	5858	1.022	72.689904477321
0	5910	1.028	72.689904477321
0	5962	1.034	72.689904477321
0	6014	1.04	72.689904477321
0	6065	1.046	72.689904477321
0	6118	1.052	72.689904477321
0	6170	1.058	72.689904477321
0	6222	1.064	72.689904477321
0	6274	1.07	72.689904477321
0	6325	1.076	72.689904477321
0	6378	1.082	72.689904477321
0	6430	1.088	72.689904477321
0	6482	1.094	72.689904477321
0	6534	1.1	72.689904477321
0	6585	1.106	72.689904477321
0	6638	1.112	72.689904477321
0	6690	1.118	72.689904477321
0	6742	1.124	72.689904477321
0	6794	1.13	72.689904477321
0	6845	1.136	72.689904477321
0	6898	1.142	72.689904477321
0	6950	1.148	72.689904477321
0	7002	1.154	72.689904477321
0	7054	1.16	72.689904477321
0	7105	1.166	72.689904477321
0	7158	1.172	72.689904477321
0	7210	1.178	72.689904477321
0	7262	1.184	72.689904477321
0	7314	1.19	72.689904477321
0	7365	1.196	72.689904477321
0	7418	1.202	72.689904477321
0	7470	1.208	72.689904477321
0	7522	1.214	72.689904477321
0	7574	1.22	72.689904477321
0	7625	1.226	72.689904477321
0	7678	1.232	72.689904477321
0	7730	1.238	72.689904477321
0	7782	1.244	72.689904477321
0	7834	1.25	72.689904477321
0	7885	1.256	72.689904477321
0	7938	1.262	72.689904477321
0	7990	1.268	72.689904477321
0	8042	1.274	72.689904477321
0	8094	1.28	72.689904477321
0	8145	1.286	72.689904477321
0	8198	1.292	72.689904477321
0	8250	1.298	72.689904477321
0	8302	1.304	72.689904477321
0	8354	1.31	72.689904477321
0	8405	1.316	72.689904477321
0	8458	1.322	72.689904477321
0	8510	1.328	72.689904477321
0	8562	1.334	72.689904477321
0	8614	1.34	72.689904477321
0	8665	1.346	72.689904477321
0	8718	1.352	72.689904477321
0	8770	1.358	72.689904477321
0	8822	1.364	72.689904477321
0	8874	1.37	72.689904477321
0	8925	1.376	72.689904477321
0	8978	1.382	72.689904477321
0	9030	1.388	72.689904477321
0	9082	1.394	72.689904477321
0	9134	1.4	72.689904477321
0	9185	1.406	72.689904477321
0	9238	1.412	72.689904477321
0	9290	1.418	72.689904477321
0	9342	1.424	72.689904477321
0	9394	1.43	72.689904477321
0	9445	1.436	72.689904477321
0	9498	1.442	72.689904477321
0	9550	1.448	72.689904477321
0	9602	1.454	72.689904477321
0	9654	1.46	72.689904477321
0	9705	1.466	72.689904477321
0	9758	1.472	72.689904477321
0	9810	1.478	72.689904477321
0	9862	1.484	72.689904477321
0	9914	1.49	72.689904477321
0	9965	1.496	72.689904477321
0	10018	1.502	72.689904477321
0	10070	1.508	72.689904477321
0	10122	1.514	72.689904477321
0	10174	1.52	72.689904477321
0	10225	1.526	72.689904477321
0	10278	1.532	72.689904477321
0	10330	1.538	72.689904477321
0	10382	1.544	72.689904477321
0	10434	1.55	72.689904477321
0	10485	1.556	72.689904477321
0	10538	1.562	72.689904477321
0	10590	1.568	72.689904477321
0	10642	1.574	72.689904477321
0	10694	1.58	72.689904477321
0	10745	1.586	72.689904477321
0	10798	1.592	72.689904477321
0	10850	1.598	72.689904477321
0	10902	1.604	72.689904477321
0	10954	1.61	72.689904477321
0	11005	1.616	72.689904477321
0	11058	1.622	72.689904477321
0	11110	1.628	72.689904477321
0	11162	1.634	72.689904477321
0	11214	1.64	72.689904477321
0	11265	1.646	72.689904477321
0	11318	1.652	72.689904477321
0	11370	1.658	72.689904477321
0	11422	1.664	72.689904477321
0	11474	1.67	72.689904477321
0	11525	1.676	72.689904477321
0	11578	1.682	72.689904477321
0	11630	1.688	72.689904477321
0	11682	1.694	72.689904477321
0	11734	1.7	72.689904477321
0	11785	1.706	72.689904477321
0	11838	1.712	72.689904477321
0	11890	1.718	72.689904477321
0	11942	1.724	72.689904477321
0	11994	1.73	72.689904477321
0	12045	1.736	72.689904477321
0	12098	1.742	72.689904477321
0	12150	1.748	72.689904477321
0	12202	1.754	72.689904477321
0	12254	1.76	72.689904477321
0	12305	1.766	72.689904477321
0	12358	1.772	72.689904477321
0	12410	1.778	72.689904477321
0	12462	1.784	72.689904477321
0	12514	1.79	72.689904477321
0	12565	1.796	72.689904477321
0	12618	1.802	72.689904477321
0	12670	1.808	72.689904477321
0	12722	1.814	72.689904477321
0	12774	1.82	72.689904477321
0	12825	1.826	72.689904477321
0	12878	1.832	72.689904477321
0	12930	1.838	72.689904477321
0	12982	1.844	72.689904477321
0	13034	1.85	72.689904477321
0	13085	1.856	72.689904477321
0	13138	1.862	72.689904477321
0	13190	1.868	72.689904477321
0	13242	1.874	72.689904477321
0	13294	1.88	72.689904477321
0	13345	1.886	72.689904477321
0	13398	1.892	72.689904477321
0	13450	1.898	72.689904477321
0	13502	1.904	72.689904477321
0	13554	1.91	72.689904477321
0	13605	1.916	72.689904477321
0	13658	1.922	72.689904477321
0	13710	1.928	72.689904477321
0	13762	1.934	72.689904477321
0	13814	1.94	72.689904477321
0	13865	1.946	72.689904477321
0	13918	1.952	72.689904477321
0	13970	1.958	72.689904477321
0	14022	1.964	72.689904477321
0	14074	1.97	72.689904477321
0	14125	1.976	72.689904477321
0	14178	1.982	72.689904477321
0	14230	1.988	72.689904477321
0	14282	1.994	72.689904477321
0	14334	2	72.689904477321
0	14385	2.006	72.689904477321
0	14438	2.012	72.689904477321
0	14490	2.018	72.689904477321
0	14542	2.024	72.689904477321
0	14594	2.03	72.689904477321
0	14645	2.036	72.689904477321
0	14698	2.042	72.689904477321
0	14750	2.048	72.689904477321
0	14802	2.054	72.689904477321
0	14854	2.06	72.689904477321
0	14905	2.066	72.689904477321
0	14958	2.072	72.689904477321
0	15010	2.078	72.689904477321
0	15062	2.084	72.689904477321
0	15114	2.09	72.689904477321
0	15165	2.096	72.689904477321
0	15218	2.102	72.689904477321
0	15270	2.108	72.689904477321
0	15322	2.114	72.689904477321
0	15374	2.12	72.689904477321
0	15425	2.126	72.689904477321
0	15478	2.132	72.689904477321
0	15530	2.138	72.689904477321
0	15582	2.144	72.689904477321
0	15634	2.15	72.689904477321
0	15685	2.156	72.689904477321
0	15738	2.162	72.689904477321
0	15790	2.168	72.689904477321
0	15842	2.174	72.689904477321
0	15894	2.18	72.689904477321
0	15945	2.186	72.689904477321
0	15998	2.192	72.689904477321
0	16050	2.198	72.689904477321
0	16102	2.204	72.689904477321
0	16154	2.21	72.689904477321
0	16205	2.216	72.689904477321
0	16258	2.222	72.689904477321
0	16310	2.228	72.689904477321
0	16362	2.234	72.689904477321
0	16414	2.24	72.689904477321
0	16465	2.246	72.689904477321
0	16518	2.252	72.689904477321
0	16570	2.258	72.689904477321
0	16622	2.264	72.689904477321
0	16674	2.27	72.689904477321
0	16725	2.276	72.689904477321
0	16778	2.282	72.689904477321
0	16830	2.288	72.689904477321
0	16882	2.294	72.689904477321
0	16934	2.3	72.689904477321
0	16985	2.306	72.689904477321
0	17038	2.312	72.689904477321
0	17090	2.318	72.689904477321
0	17142	2.324	72.689904477321
0	17194	2.33	72.689904477321
0	17245	2.336	72.689904477321
0	17298	2.342	72.689904477321
0	17350	2.348	72.689904477321
0	17402	2.354	72.689904477321
0	17454	2.36	72.689904477321
0	17505	2.366	72.689904477321
0	17558	2.372	72.689904477321
0	17610	2.378	72.689904477321
0	17662	2.384	72.689904477321
0	17714	2.39	72.689904477321
0	17765	2.396	72.689904477321
0	17818	2.402	72.689904477321
0	17870	2.408	72.689904477321
0	17922	2.414	72.689904477321
0	17974	2.42	72.689904477321
0	18025	2.426	72.689904477321
0	18078	2.432	72.689904477321
0	18130	2.438	72.689904477321
0	18182	2.444	72.689904477321
0	18234	2.45	72.689904477321
0	18285	2.456	72.689904477321
0	18338	2.462	72.689904477321
0	18390	2.468	72.689904477321
0	18442	2.474	72.689904477321
0	18494	2.48	72.689904477321
0	18545	2.486	72.689904477321
0	18598	2.492	72.689904477321
0	18650	2.498	72.689904477321
0	18702	2.504	72.689904477321
0	18754	2.51	72.689904477321
0	18805	2.516	72.689904477321
0	18858	2.522	72.689904477321
0	18910	2.528	72.689904477321
0	18962	2.534	72.689904477321
0	19014	2.54	72.689904477321
0	19065	2.546	72.689904477321
0	19118	2.552	72.689904477321
0	19170	2.558	72.689904477321
0	19222	2.564	72.689904477321
0	19274	2.57	72.689904477321
0	19325	2.576	72.689904477321
0	19378	2.582	72.689904477321
0	19430	2.588	72.689904477321
0	19482	2.594	72.689904477321
0	19534	2.6	72.689904477321
0	19585	2.606	72.689904477321
0	19638	2.612	72.689904477321
0	19690	2.618	72.689904477321
0	19742	2.624	72.689904477321
0	19794	2.63	72.689904477321
0	19845	2.636	72.689904477321
0	19898	2.642	72.689904477321
0	19950	2.648	72.689904477321
0	20002	2.654	72.689904477321
0	20054	2.66	72.689904477321
0	20105	2.666	72.689904477321
0	20158	2.672	72.689904477321
0	20210	2.678	72.689904477321
0	20262	2.684	72.689904477321
0	20314	2.69	72.689904477321
0	20365	2.696	72.689904477321
0	20418	2.702	72.689904477321
0	20470	2.708	72.689904477321
0	20522	2.714	72.689904477321
0	20574	2.72	72.689904477321
0	20625	2.726	72.689904477321
0	20678	2.732	72.689904477321
0	20730	2.738	72.689904477321
0	20782	2.744	72.689904477321
0	20834	2.75	72.689904477321
0	20885	2.756	72.689904477321
0	20938	2.762	72.689904477321
0	20990	2.768	72.689904477321
0	21042	2.774	72.689904477321
0	21094	2.78	72.689904477321
0	21145	2.786	72.689904477321
0	21198	2.792	72.689904477321
0	21250	2.798	72.689904477321
0	21302	2.804	72.689904477321
0	21354	2.81	72.689904477321
0	21405	2.816	72.689904477321
0	21458	2.822	72.689904477321
0	21510	2.828	72.689904477321
0	21562	2.834	72.689904477321
0	21614	2.84	72.689904477321
0	21665	2.846	72.689904477321
0	21718	2.852	72.689904477321
0	21770	2.858	72.689904477321
0	21822	2.864	72.689904477321
0	21874	2.87	72.689904477321
0	21925	2.876	72.689904477321
0	21978	2.882	72.689904477321
0	22030	2.888	72.689904477321
0	22082	2.894	72.689904477321
0	22134	2.9	72.689904477321
0	22185	2.906	72.689904477321
0	22238	2.912	72.689904477321
0	22290	2.918	72.689904477321
0	22342	2.924	72.689904477321
0	22394	2.93	72.689904477321
0	22445	2.936	72.689904477321
0	22498	2.942	72.689904477321
0	22550	2.948	72.689904477321
0	22602	2.954	72.689904477321
0	22654	2.96	72.689904477321
0	22705	2.966	72.689904477321
0	22758	2.972	72.689904477321
0	22810	2.978	72.689904477321
0	22862	2.984	72.689904477321
0	22914	2.99	72.689904477321
0	22965	2.996	72.689904477321
0	23018	3.002	72.689904477321
0	23070	3.008	72.689904477321
0	23122	3.014	72.689904477321
0	23174	3.02	72.689904477321
0	23225	3.026	72.689904477321
0	23278	3.032	72.689904477321
0	23330	3.038	72.689904477321
0	23382	3.044	72.689904477321
0	23434	3.05	72.689904477321
0	23485	3.056	72.689904477321
0	23538	3.062	72.689904477321
0	23590	3.068	72.689904477321
0	23642	3.074	72.689904477321
0	23694	3.08	72.689904477321
0	23745	3.086	72.689904477321
0	23798	3.092	72.689904477321
0	23850	3.098	72.689904477321
0	23902	3.104	72.689904477321
0	23954	3.11	72.689904477321
0	24005	3.116	72.689904477321
0	24058	3.122	72.689904477321
0	24110	3.128	72.689904477321
0	24162	3.134	72.689904477321
0	24214	3.14	72.689904477321
0	24265	3.146	72.689904477321
0	24318	3.152	72.689904477321
0	24370	3.158	72.689904477321
0	24422	3.164	72.689904477321
0	24474	3.17	72.689904477321
0	24525	3.176	72.689904477321
0	24578	3.182	72.689904477321
0	24630	3.188	72.689904477321
0	24682	3.194	72.689904477321
0	24734	3.2	72.689904477321
0	24785	3.206	72.689904477321
0	24838	3.212	72.689904477321
0	24890	3.218	72.689904477321
0	24942	3.224	72.689904477321
0	24994	3.23	72.689904477321
0	25045	3.236	72.689904477321
0	25098	3.242	72.689904477321
0	25150	3.248	72.689904477321
0	25202	3.254	72.689904477321
0	25254	3.26	72.689904477321
0	25305	3.266	72.689904477321
0	25358	3.272	72.689904477321
0	25410	3.278	72.689904477321
0	25462	3.284	72.689904477321
0	25514	3.29	72.689904477321
0	25565	3.296	72.689904477321
0	25618	3.302	72.689904477321
0	25670	3.308	72.689904477321
0	25722	3.314	72.689904477321
0	25774	3.32	72.689904477321
0	25825	3.326	72.689904477321
0	25878	3.332	72.689904477321
0	25930	3.338	72.689904477321
0	25982	3.344	72.689904477321
0	26034	3.35	72.689904477321
0	26085	3.356	72.689904477321
0	26138	3.362	72.689904477321
0	26190	3.368	72.689904477321
0	26242	3.374	72.689904477321
0	26294	3.38	72.689904477321
0	26345	3.386	72.689904477321
0	26398	3.392	72.689904477321
0	26450	3.398	72.689904477321
0	26502	3.404	72.689904477321
0	26554	3.41	72.689904477321
0	26605	3.416	72.689904477321
0	26658	3.422	72.689904477321
0	26710	3.428	72.689904477321
0	26762	3.434	72.689904477321
0	26814	3.44	72.689904477321
0	26865	3.446	72.689904477321
0	26918	3.452	72.689904477321
0	26970	3.458	72.689904477321
0	27022	3.464	72.689904477321
0	27074	3.47	72.689904477321
0	27125	3.476	72.689904477321
0	27178	3.482	72.689904477321
0	27230	3.488	72.689904477321
0	27282	3.494	72.689904477321
0	27334	3.5	72.689904477321
0	27385	3.506	72.689904477321
0	27438	3.512	72.689904477321
0	27490	3.518	72.689904477321
0	27542	3.524	72.689904477321
0	27594	3.53	72.689904477321
0	27645	3.536	72.689904477321
0	27698	3.542	72.689904477321
0	27750	3.548	72.689904477321
0	27802	3.554	72.689904477321
0	27854	3.56	72.689904477321
0	27905	3.566	72.689904477321
0	27958	3.572	72.689904477321
0	28010	3.578	72.689904477321
0	28062	3.584	72.689904477321
0	28114	3.59	72.689904477321
0	28165	3.596	72.689904477321
0	28218	3.602	72.689904477321
0	28270	3.608	72.689904477321
0	28322	3.614	72.689904477321
0	28374	3.62	72.689904477321
0	28425	3.626	72.689904477321
0	28478	3.632	72.689904477321
0	28530	3.638	72.689904477321
0	28582	3.644	72.689904477321
0	28634	3.65	72.689904477321
0	28685	3.656	72.689904477321
0	28738	3.662	72.689904477321
0	28790	3.668	72.689904477321
0	28842	3.674	72.689904477321
0	28894	3.68	72.689904477321
0	28945	3.686	72.689904477321
0	28998	3.692	72.689904477321
0	29050	3.698	72.689904477321
0	29102	3.704	72.689904477321
0	29154	3.71	72.689904477321
0	29205	3.716	72.689904477321
0	29258	3.722	72.689904477321
0	29310	3.728	72.689904477321
0	29362	3.734	72.689904477321
0	29414	3.74	72.689904477321
0	29465	3.746	72.689904477321
0	29518	3.752	72.689904477321
0	29570	3.758	72.689904477321
0	29622	3.764	72.689904477321
0	29674	3.77	72.689904477321
0	29725	3.776	72.689904477321
0	29778	3.782	72.689904477321
0	29830	3.788	72.689904477321
0	29882	3.794	72.689904477321
0	29934	3.8	72.689904477321
0	29985	3.806	72.689904477321
0	30038	3.812	72.689904477321
0	30090	3.818	72.689904477321
0	30142	3.824	72.689904477321
0	30194	3.83	72.689904477321
0	30245	3.836	72.689904477321
0	30298	3.842	72.689904477321
0	30350	3.848	72.689904477321
0	30402	3.854	72.689904477321
0	30454	3.86	72.689904477321
0	30505	3.866	72.689904477321
0	30558	3.872	72.689904477321
0	30610	3.878	72.689904477321
0	30662	3.884	72.689904477321
0	30714	3.89	72.689904477321
0	30765	3.896	72.689904477321
0	30818	3.902	72.689904477321
0	30870	3.908	72.689904477321
0	30922	3.914	72.689904477321
0	30974	3.92	72.689904477321
0	31025	3.926	72.689904477321
0	31078	3.932	72.689904477321
0	31130	3.938	72.689904477321
0	31182	3.944	72.689904477321
0	31234	3.95	72.689904477321
0	31285	3.956	72.689904477321
0	31338	3.962	72.689904477321
0	31390	3.968	72.689904477321
0	31442	3.974	72.689904477321
0	31494	3.98	72.689904477321
0	31545	3.986	72.689904477321
0	31598	3.992	72.689904477321
0	31650	3.998	72.689904477321
0	31702	4.004	72.689904477321
0	31754	4.01	72.689904477321
0	31805	4.016	72.689904477321
0	31858	4.022	72.689904477321
0	31910	4.028	72.689904477321
0	31962	4.034	72.689904477321
0	32014	4.04	72.689904477321
0	32065	4.046	72.689904477321
0	32118	4.052	72.689904477321
0	32170	4.058	72.689904477321
0	32222	4.064	72.689904477321
0	32274	4.07	72.689904477321
0	32325	4.076	72.689904477321
0	32378	4.082	72.689904477321
0	32430	4.088	72.689904477321
0	32482	4.094	72.689904477321
0	32534	4.1	72.689904477321
0	32585	4.106	72.689904477321
0	32638	4.112	72.689904477321
0	32690	4.118	72.689904477321
0	32742	4.124	72.689904477321
0	32794	4.13	72.689904477321
0	32845	4.136	72.689904477321
0	32898	4.142	72.689904477321
0	32950	4.148	72.689904477321
0	33002	4.154	72.689904477321
0	33054	4.16	72.689904477321
0	33105	4.166	72.689904477321
0	33158	4.172	72.689904477321
0	33210	4.178	72.689904477321
0	33262	4.184	72.689904477321
0	33314	4.19	72.689904477321
0	33365	4.196	72.689904477321
0	33418	4.202	72.689904477321
0	33470	4.208	72.689904477321
0	33522	4.214	72.689904477321
0	33574	4.22	72.689904477321
0	33625	4.226	72.689904477321
0	33678	4.232	72.689904477321
0	33730	4.238	72.689904477321
0	33782	4.244	72.689904477321
0	33834	4.25	72.689904477321
0	33885	4.256	72.689904477321
0	33938	4.262	72.689904477321
0	33990	4.268	72.689904477321
0	34042	4.274	72.689904477321
0	34094	4.28	72.689904477321
0	34145	4.286	72.689904477321
0	34198	4.292	72.689904477321
0	34250	4.298	72.689904477321
0	34302	4.304	72.689904477321
0	34354	4.31	72.689904477321
0	34405	4.316	72.689904477321
0	34458	4.322	72.689904477321
0	34510	4.328	72.689904477321
0	34562	4.334	72.689904477321
0	34614	4.34	72.689904477321
0	34665	4.346	72.689904477321
0	34718	4.352	72.689904477321
0	34770	4.358	72.689904477321
0	34822	4.364	72.689904477321
0	34874	4.37	72.689904477321
0	34925	4.376	72.689904477321
0	34978	4.382	72.689904477321
0	35030	4.388	72.689904477321
0	35082	4.394	72.689904477321
0	35134	4.4	72.689904477321
0	35185	4.406	72.689904477321
0	35238	4.412	72.689904477321
0	35290	4.418	72.689904477321
0	35342	4.424	72.689904477321
0	35394	4.43	72.689904477321
0	35445	4.436	72.689904477321
0	35498	4.442	72.689904477321
0	35550	4.448	72.689904477321
0	35602	4.454	72.689904477321
0	35654	4.46	72.689904477321
0	35705	4.466	72.689904477321
0	35758	4.472	72.689904477321
0	35810	4.478	72.689904477321
0	35862	4.484	72.689904477321
0	35914	4.49	72.689904477321
0	35965	4.496	72.689904477321
0	36018	4.502	72.689904477321
0	36070	4.508	72.689904477321
0	36122	4.514	72.689904477321
0	36174	4.52	72.689904477321
0	36225	4.526	72.689904477321
0	36278	4.532	72.689904477321
0	36330	4.538	72.689904477321
0	36382	4.544	72.689904477321
0	36434	4.55	72.689904477321
0	36485	4.556	72.689904477321
0	36538	4.562	72.689904477321
0	36590	4.568	72.689904477321
0	36642	4.574	72.689904477321
0	36694	4.58	72.689904477321
0	36745	4.586	72.689904477321
0	36798	4.592	72.689904477321
0	36850	4.598	72.689904477321
0	36902	4.604	72.689904477321
0	36954	4.61	72.689904477321
0	37005	4.616	72.689904477321
0	37058	4.622	72.689904477321
0	37110	4.628	72.689904477321
0	37162	4.634	72.689904477321
0	37214	4.64	72.689904477321
0	37265	4.646	72.689904477321
0	37318	4.652	72.689904477321
0	37370	4.658	72.689904477321
0	37422	4.664	72.689904477321
0	37474	4.67	72.689904477321
0	37525	4.676	72.689904477321
0	37578	4.682	72.689904477321
0	37630	4.688	72.689904477321
0	37682	4.694	72.689904477321
0	37734	4.7	72.689904477321
0	37785	4.706	72.689904477321
0	37838	4.712	72.689904477321
0	37890	4.718	72.689904477321
0	37942	4.724	72.689904477321
0	37994	4.73	72.689904477321
0	38045	4.736	72.689904477321
0	38098	4.742	72.689904477321
0	38150	4.748	72.689904477321
0	38202	4.754	72.689904477321
0	38254	4.76	72.689904477321
0	38305	4.766	72.689904477321
0	38358	4.772	72.689904477321
0	38410	4.778	72.689904477321
0	38462	4.784	72.689904477321
0	38514	4.79	72.689904477321
0	38565	4.796	72.689904477321
0	38618	4.802	72.689904477321
0	38670	4.808	72.689904477321
0	38722	4.814	72.689904477321
0	38774	4.82	72.689904477321
0	38825	4.826	72.689904477321
0	38878	4.832	72.689904477321
0	38930	4.838	72.689904477321
0	38982	4.844	72.689904477321
0	39034	4.85	72.689904477321
0	39085	4.856	72.689904477321
0	39138	4.862	72.689904477321
0	39190	4.868	72.689904477321
0	39242	4.874	72.689904477321
0	39294	4.88	72.689904477321
0	39345	4.886	72.689904477321
0	39398	4.892	72.689904477321
0	39450	4.898	72.689904477321
0	39502	4.904	72.689904477321
0	39554	4.91	72.689904477321
0	39605	4.916	72.689904477321
0	39658	4.922	72.689904477321
0	39710	4.928	72.689904477321
0	39762	4.934	72.689904477321
0	39814	4.94	72.689904477321
0	39865	4.946	72.689904477321
0	39918	4.952	72.689904477321
0	39970	4.958	72.689904477321
0	40022	4.964	72.689904477321
0	40074	4.97	72.689904477321
0	40125	4.976	72.689904477321
0	40178	4.982	72.689904477321
0	40230	4.988	72.689904477321
0	40282	4.994	72.689904477321
0	40334	5	72.689904477321
0	40385	5.006	72.689904477321
0	40438	5.012	72.689904477321
0	40490	5.018	72.689904477321
0	40542	5.024	72.689904477321
0	40594	5.03	72.689904477321
0	40645	5.036	72.689904477321
0	40698	5.042	72.689904477321
0	40750	5.048	72.689904477321
0	40802	5.054	72.689904477321
0	40854	5.06	72.689904477321
0	40905	5.066	72.689904477321
0	40958	5.072	72.689904477321
0	41010	5.078	72.689904477321
0	41062	5.084	72.689904477321
0	41114	5.09	72.689904477321
0	41165	5.096	72.689904477321
0	41218	5.102	72.689904477321
0	41270	5.108	72.689904477321
0	41322	5.114	72.689904477321
0	41374	5.12	72.689904477321
0	41425	5.126	72.689904477321
0	41478	5.132	72.689904477321
0	41530	5.138	72.689904477321
0	41582	5.144	72.689904477321
0	41634	5.15	72.689904477321
0	41685	5.156	72.689904477321
0	41738	5.162	72.689904477321
0	41790	5.168	72.689904477321
0	41842	5.174	72.689904477321
0	41894	5.18	72.689904477321
0	41945	5.186	72.689904477321
0	41998	5.192	72.689904477321
0	42050	5.198	72.689904477321
0	42102	5.204	72.689904477321
0	42154	5.21	72.689904477321
0	42205	5.216	72.689904477321
0	42258	5.222	72.689904477321
0	42310	5.228	72.689904477321
0	42362	5.234	72.689904477321
0	42414	5.24	72.689904477321
0	42465	5.246	72.689904477321
0	42518	5.252	72.689904477321
0	42570	5.258	72.689904477321
0	42622	5.264	72.689904477321
0	42674	5.27	72.689904477321
0	42725	5.276	72.689904477321
0	42778	5.282	72.689904477321
0	42830	5.288	72.689904477321
0	42882	5.294	72.689904477321
0	42934	5.3	72.689904477321
0	42985	5.306	72.689904477321
0	43038	5.312	72.689904477321
0	43090	5.318	72.689904477321
0	43142	5.324	72.689904477321
0	43194	5.33	72.689904477321
0	43245	5.336	72.689904477321
0	43298	5.342	72.689904477321
0	43350	5.348	72.689904477321
0	43402	5.354	72.689904477321
0	43454	5.36	72.689904477321
0	43505	5.366	72.689904477321
0	43558	5.372	72.689904477321
0	43610	5.378	72.689904477321
0	43662	5.384	72.689904477321
0	43714	5.39	72.689904477321
0	43765	5.396	72.689904477321
0	43818	5.402	72.689904477321
0	43870	5.408	72.689904477321
0	43922	5.414	72.689904477321
0	43974	5.42	72.689904477321
0	44025	5.426	72.689904477321
0	44078	5.432	72.689904477321
0	44130	5.438	72.689904477321
0	44182	5.444	72.689904477321
0	44234	5.45	72.689904477321
0	44285	5.456	72.689904477321
0	44338	5.462	72.689904477321
0	44390	5.468	72.689904477321
0	44442	5.474	72.689904477321
0	44494	5.48	72.689904477321
0	44545	5.486	72.689904477321
0	44598	5.492	72.689904477321
0	44650	5.498	72.689904477321
0	44702	5.504	72.689904477321
0	44754	5.51	72.689904477321
0	44805	5.516	72.689904477321
0	44858	5.522	72.689904477321
0	44910	5.528	72.689904477321
0	44962	5.534	72.689904477321
0	45014	5.54	72.689904477321
0	45065	5.546	72.689904477321
0	45118	5.552	72.689904477321
0	45170	5.558	72.689904477321
0	45222	5.564	72.689904477321
0	45274	5.57	72.689904477321
0	45325	5.576	72.689904477321
0	45378	5.582	72.689904477321
0	45430	5.588	72.689904477321
0	45482	5.594	72.689904477321
0	45534	5.6	72.689904477321
0	45585	5.606	72.689904477321
0	45638	5.612	72.689904477321
0	45690	5.618	72.689904477321
0	45742	5.624	72.689904477321
0	45794	5.63	72.689904477321
0	45845	5.636	72.689904477321
0	45898	5.642	72.689904477321
0	45950	5.648	72.689904477321
0	46002	5.654	72.689904477321
0	46054	5.66	72.689904477321
0	46105	5.666	72.689904477321
0	46158	5.672	72.689904477321
0	46210	5.678	72.689904477321
0	46262	5.684	72.689904477321
0	46314	5.69	72.689904477321
0	46365	5.696	72.689904477321
0	46418	5.702	72.689904477321
0	46470	5.708	72.689904477321
0	46522	5.714	72.689904477321
0	46574	5.72	72.689904477321
0	46625	5.726	72.689904477321
0	46678	5.732	72.689904477321
0	46730	5.738	72.689904477321
0	46782	5.744	72.689904477321
0	46834	5.75	72.689904477321
0	46885	5.756	72.689904477321
0	46938	5.762	72.689904477321
0	46990	5.768	72.689904477321
0	47042	5.774	72.689904477321
0	47094	5.78	72.689904477321
0	47145	5.786	72.689904477321
0	47198	5.792	72.689904477321
0	47250	5.798	72.689904477321
0	47302	5.804	72.689904477321
0	47354	5.81	72.689904477321
0	47405	5.816	72.689904477321
0	47458	5.822	72.689904477321
0	47510	5.828	72.689904477321
0	47562	5.834	72.689904477321
0	47614	5.84	72.689904477321
0	47665	5.846	72.689904477321
0	47718	5.852	72.689904477321
0	47770	5.858	72.689904477321
0	47822	5.864	72.689904477321
0	47874	5.87	72.689904477321
0	47925	5.876	72.689904477321
0	47978	5.882	72.689904477321
0	48030	5.888	72.689904477321
0	48082	5.894	72.689904477321
0	48134	5.9	72.689904477321
0	48185	5.906	72.689904477321
0	48238	5.912	72.689904477321
0	48290	5.918	72.689904477321
0	48342	5.924	72.689904477321
0	48394	5.93	72.689904477321
0	48445	5.936	72.689904477321
0	48498	5.942	72.689904477321
0	48550	5.948	72.689904477321
0	48602	5.954	72.689904477321
0	48654	5.96	72.689904477321
0	48705	5.966	72.689904477321
0	48758	5.972	72.689904477321
0	48810	5.978	72.689904477321
0	48862	5.984	72.689904477321
0	48914	5.99	72.689904477321