version 2
run Double-1-20150802-15:09:05-3081
attr configname Double
attr datetime 20150802-15:09:05
attr experiment Double
attr inifile ./simulations/single/omnetpp1.ini
attr iterationvars $0=50m
attr iterationvars2 "$0=50m, $repetition=0"
attr measurement $0=50m
attr network lte_d2d.simulations.networks.onepair
attr processid 3081
attr repetition 0
attr replication #0
attr resultdir results
attr runnumber 1
attr seedset 1

vector 2  onepair.master.nic.phy  SINR_dlvect:vector  ETV
attr source  SINR_dlvect
attr title  "vector of SINR, vector"
attr unit  db
2	7	0.002	37.464658673085
2	23	0.008	37.464658673085
2	39	0.014	37.464658673085
2	55	0.02	37.464658673085
2	71	0.026	37.464658673085
2	87	0.032	37.464658673085
2	103	0.038	37.464658673085
2	119	0.044	37.464658673085
2	135	0.05	37.464658673085
2	151	0.056	37.464658673085
2	167	0.062	37.464658673085
2	183	0.068	37.464658673085
2	199	0.074	37.464658673085
2	215	0.08	37.464658673085
2	231	0.086	37.464658673085
2	247	0.092	37.464658673085
2	263	0.098	37.464658673085
2	279	0.104	37.464658673085
2	295	0.11	37.464658673085
2	311	0.116	37.464658673085
2	327	0.122	37.464658673085
2	343	0.128	37.464658673085
2	359	0.134	37.464658673085
2	375	0.14	37.464658673085
2	391	0.146	37.464658673085
2	407	0.152	37.464658673085
2	423	0.158	37.464658673085
2	439	0.164	37.464658673085
2	455	0.17	37.464658673085
2	471	0.176	37.464658673085
2	487	0.182	37.464658673085
2	503	0.188	37.464658673085
2	519	0.194	37.464658673085
2	535	0.2	37.464658673085
2	551	0.206	37.464658673085
2	567	0.212	37.464658673085
2	583	0.218	37.464658673085
2	599	0.224	37.464658673085
2	615	0.23	37.464658673085
2	631	0.236	37.464658673085
2	647	0.242	37.464658673085
2	663	0.248	37.464658673085
2	679	0.254	37.464658673085
2	695	0.26	37.464658673085
2	711	0.266	37.464658673085
2	727	0.272	37.464658673085
2	743	0.278	37.464658673085
2	759	0.284	37.464658673085
2	775	0.29	37.464658673085
2	791	0.296	37.464658673085
2	807	0.302	37.464658673085
2	823	0.308	37.464658673085
2	839	0.314	37.464658673085
2	855	0.32	37.464658673085
2	871	0.326	37.464658673085
2	887	0.332	37.464658673085
2	903	0.338	37.464658673085
2	919	0.344	37.464658673085
2	935	0.35	37.464658673085
2	951	0.356	37.464658673085
2	967	0.362	37.464658673085
2	983	0.368	37.464658673085
2	999	0.374	37.464658673085
2	1015	0.38	37.464658673085
2	1031	0.386	37.464658673085
2	1047	0.392	37.464658673085
2	1063	0.398	37.464658673085
2	1079	0.404	37.464658673085
2	1095	0.41	37.464658673085
2	1111	0.416	37.464658673085
2	1127	0.422	37.464658673085
2	1143	0.428	37.464658673085
2	1159	0.434	37.464658673085
2	1175	0.44	37.464658673085
2	1191	0.446	37.464658673085
2	1207	0.452	37.464658673085
2	1223	0.458	37.464658673085
2	1239	0.464	37.464658673085
2	1255	0.47	37.464658673085
2	1271	0.476	37.464658673085
2	1287	0.482	37.464658673085
2	1303	0.488	37.464658673085
2	1319	0.494	37.464658673085
2	1339	0.5	37.464658673085
2	1385	0.506	37.464658673085
2	1438	0.512	37.464658673085
2	1490	0.518	37.464658673085
2	1542	0.524	37.464658673085
2	1594	0.53	37.464658673085
2	1645	0.536	37.464658673085
2	1698	0.542	37.464658673085
2	1750	0.548	37.464658673085
2	1802	0.554	37.464658673085
2	1854	0.56	37.464658673085
2	1905	0.566	37.464658673085
2	1958	0.572	37.464658673085
2	2010	0.578	37.464658673085
2	2062	0.584	37.464658673085
2	2114	0.59	37.464658673085
2	2165	0.596	37.464658673085
2	2218	0.602	37.464658673085
2	2270	0.608	37.464658673085
2	2322	0.614	37.464658673085
2	2374	0.62	37.464658673085
2	2425	0.626	37.464658673085
2	2478	0.632	37.464658673085
2	2530	0.638	37.464658673085
2	2582	0.644	37.464658673085
2	2634	0.65	37.464658673085
2	2685	0.656	37.464658673085
2	2738	0.662	37.464658673085
2	2790	0.668	37.464658673085
2	2842	0.674	37.464658673085
2	2894	0.68	37.464658673085
2	2945	0.686	37.464658673085
2	2998	0.692	37.464658673085
2	3050	0.698	37.464658673085
2	3102	0.704	37.464658673085
2	3154	0.71	37.464658673085
2	3205	0.716	37.464658673085
2	3258	0.722	37.464658673085
2	3310	0.728	37.464658673085
2	3362	0.734	37.464658673085
2	3414	0.74	37.464658673085
2	3465	0.746	37.464658673085
2	3518	0.752	37.464658673085
2	3570	0.758	37.464658673085
2	3622	0.764	37.464658673085
2	3674	0.77	37.464658673085
2	3725	0.776	37.464658673085
2	3778	0.782	37.464658673085
2	3830	0.788	37.464658673085
2	3882	0.794	37.464658673085
2	3934	0.8	37.464658673085
2	3985	0.806	37.464658673085
2	4038	0.812	37.464658673085
2	4090	0.818	37.464658673085
2	4142	0.824	37.464658673085
2	4194	0.83	37.464658673085
2	4245	0.836	37.464658673085
2	4298	0.842	37.464658673085
2	4350	0.848	37.464658673085
2	4402	0.854	37.464658673085
2	4454	0.86	37.464658673085
2	4505	0.866	37.464658673085
2	4558	0.872	37.464658673085
2	4610	0.878	37.464658673085
2	4662	0.884	37.464658673085
2	4714	0.89	37.464658673085
2	4765	0.896	37.464658673085
2	4818	0.902	37.464658673085
2	4870	0.908	37.464658673085
2	4922	0.914	37.464658673085
2	4974	0.92	37.464658673085
2	5025	0.926	37.464658673085
2	5078	0.932	37.464658673085
2	5130	0.938	37.464658673085
2	5182	0.944	37.464658673085
2	5234	0.95	37.464658673085
2	5285	0.956	37.464658673085
2	5338	0.962	37.464658673085
2	5390	0.968	37.464658673085
2	5442	0.974	37.464658673085
2	5494	0.98	37.464658673085
2	5545	0.986	37.464658673085
2	5598	0.992	37.464658673085
2	5650	0.998	37.464658673085
2	5702	1.004	37.464658673085
2	5754	1.01	37.464658673085
2	5805	1.016	37.464658673085
2	5858	1.022	37.464658673085
2	5910	1.028	37.464658673085
2	5962	1.034	37.464658673085
2	6014	1.04	37.464658673085
2	6065	1.046	37.464658673085
2	6118	1.052	37.464658673085
2	6170	1.058	37.464658673085
2	6222	1.064	37.464658673085
2	6274	1.07	37.464658673085
2	6325	1.076	37.464658673085
2	6378	1.082	37.464658673085
2	6430	1.088	37.464658673085
2	6482	1.094	37.464658673085
2	6534	1.1	37.464658673085
2	6585	1.106	37.464658673085
2	6638	1.112	37.464658673085
2	6690	1.118	37.464658673085
2	6742	1.124	37.464658673085
2	6794	1.13	37.464658673085
2	6845	1.136	37.464658673085
2	6898	1.142	37.464658673085
2	6950	1.148	37.464658673085
2	7002	1.154	37.464658673085
2	7054	1.16	37.464658673085
2	7105	1.166	37.464658673085
2	7158	1.172	37.464658673085
2	7210	1.178	37.464658673085
2	7262	1.184	37.464658673085
2	7314	1.19	37.464658673085
2	7365	1.196	37.464658673085
2	7418	1.202	37.464658673085
2	7470	1.208	37.464658673085
2	7522	1.214	37.464658673085
2	7574	1.22	37.464658673085
2	7625	1.226	37.464658673085
2	7678	1.232	37.464658673085
2	7730	1.238	37.464658673085
2	7782	1.244	37.464658673085
2	7834	1.25	37.464658673085
2	7885	1.256	37.464658673085
2	7938	1.262	37.464658673085
2	7990	1.268	37.464658673085
2	8042	1.274	37.464658673085
2	8094	1.28	37.464658673085
2	8145	1.286	37.464658673085
2	8198	1.292	37.464658673085
2	8250	1.298	37.464658673085
2	8302	1.304	37.464658673085
2	8354	1.31	37.464658673085
2	8405	1.316	37.464658673085
2	8458	1.322	37.464658673085
2	8510	1.328	37.464658673085
2	8562	1.334	37.464658673085
2	8614	1.34	37.464658673085
2	8665	1.346	37.464658673085
2	8718	1.352	37.464658673085
2	8770	1.358	37.464658673085
2	8822	1.364	37.464658673085
2	8874	1.37	37.464658673085
2	8925	1.376	37.464658673085
2	8978	1.382	37.464658673085
2	9030	1.388	37.464658673085
2	9082	1.394	37.464658673085
2	9134	1.4	37.464658673085
2	9185	1.406	37.464658673085
2	9238	1.412	37.464658673085
2	9290	1.418	37.464658673085
2	9342	1.424	37.464658673085
2	9394	1.43	37.464658673085
2	9445	1.436	37.464658673085
2	9498	1.442	37.464658673085
2	9550	1.448	37.464658673085
2	9602	1.454	37.464658673085
2	9654	1.46	37.464658673085
2	9705	1.466	37.464658673085
2	9758	1.472	37.464658673085
2	9810	1.478	37.464658673085
2	9862	1.484	37.464658673085
2	9914	1.49	37.464658673085
2	9965	1.496	37.464658673085
2	10018	1.502	37.464658673085
2	10070	1.508	37.464658673085
2	10122	1.514	37.464658673085
2	10174	1.52	37.464658673085
2	10225	1.526	37.464658673085
2	10278	1.532	37.464658673085
2	10330	1.538	37.464658673085
2	10382	1.544	37.464658673085
2	10434	1.55	37.464658673085
2	10485	1.556	37.464658673085
2	10538	1.562	37.464658673085
2	10590	1.568	37.464658673085
2	10642	1.574	37.464658673085
2	10694	1.58	37.464658673085
2	10745	1.586	37.464658673085
2	10798	1.592	37.464658673085
2	10850	1.598	37.464658673085
2	10902	1.604	37.464658673085
2	10954	1.61	37.464658673085
2	11005	1.616	37.464658673085
2	11058	1.622	37.464658673085
2	11110	1.628	37.464658673085
2	11162	1.634	37.464658673085
2	11214	1.64	37.464658673085
2	11265	1.646	37.464658673085
2	11318	1.652	37.464658673085
2	11370	1.658	37.464658673085
2	11422	1.664	37.464658673085
2	11474	1.67	37.464658673085
2	11525	1.676	37.464658673085
2	11578	1.682	37.464658673085
2	11630	1.688	37.464658673085
2	11682	1.694	37.464658673085
2	11734	1.7	37.464658673085
2	11785	1.706	37.464658673085
2	11838	1.712	37.464658673085
2	11890	1.718	37.464658673085
2	11942	1.724	37.464658673085
2	11994	1.73	37.464658673085
2	12045	1.736	37.464658673085
2	12098	1.742	37.464658673085
2	12150	1.748	37.464658673085
2	12202	1.754	37.464658673085
2	12254	1.76	37.464658673085
2	12305	1.766	37.464658673085
2	12358	1.772	37.464658673085
2	12410	1.778	37.464658673085
2	12462	1.784	37.464658673085
2	12514	1.79	37.464658673085
2	12565	1.796	37.464658673085
2	12618	1.802	37.464658673085
2	12670	1.808	37.464658673085
2	12722	1.814	37.464658673085
2	12774	1.82	37.464658673085
2	12825	1.826	37.464658673085
2	12878	1.832	37.464658673085
2	12930	1.838	37.464658673085
2	12982	1.844	37.464658673085
2	13034	1.85	37.464658673085
2	13085	1.856	37.464658673085
2	13138	1.862	37.464658673085
2	13190	1.868	37.464658673085
2	13242	1.874	37.464658673085
2	13294	1.88	37.464658673085
2	13345	1.886	37.464658673085
2	13398	1.892	37.464658673085
2	13450	1.898	37.464658673085
2	13502	1.904	37.464658673085
2	13554	1.91	37.464658673085
2	13605	1.916	37.464658673085
2	13658	1.922	37.464658673085
2	13710	1.928	37.464658673085
2	13762	1.934	37.464658673085
2	13814	1.94	37.464658673085
2	13865	1.946	37.464658673085
2	13918	1.952	37.464658673085
2	13970	1.958	37.464658673085
2	14022	1.964	37.464658673085
2	14074	1.97	37.464658673085
2	14125	1.976	37.464658673085
2	14178	1.982	37.464658673085
2	14230	1.988	37.464658673085
2	14282	1.994	37.464658673085
2	14334	2	37.464658673085
2	14385	2.006	37.464658673085
2	14438	2.012	37.464658673085
2	14490	2.018	37.464658673085
2	14542	2.024	37.464658673085
2	14594	2.03	37.464658673085
2	14645	2.036	37.464658673085
2	14698	2.042	37.464658673085
2	14750	2.048	37.464658673085
2	14802	2.054	37.464658673085
2	14854	2.06	37.464658673085
2	14905	2.066	37.464658673085
2	14958	2.072	37.464658673085
2	15010	2.078	37.464658673085
2	15062	2.084	37.464658673085
2	15114	2.09	37.464658673085
2	15165	2.096	37.464658673085
2	15218	2.102	37.464658673085
2	15270	2.108	37.464658673085
2	15322	2.114	37.464658673085
2	15374	2.12	37.464658673085
2	15425	2.126	37.464658673085
2	15478	2.132	37.464658673085
2	15530	2.138	37.464658673085
2	15582	2.144	37.464658673085
2	15634	2.15	37.464658673085
2	15685	2.156	37.464658673085
2	15738	2.162	37.464658673085
2	15790	2.168	37.464658673085
2	15842	2.174	37.464658673085
2	15894	2.18	37.464658673085
2	15945	2.186	37.464658673085
2	15998	2.192	37.464658673085
2	16050	2.198	37.464658673085
2	16102	2.204	37.464658673085
2	16154	2.21	37.464658673085
2	16205	2.216	37.464658673085
2	16258	2.222	37.464658673085
2	16310	2.228	37.464658673085
2	16362	2.234	37.464658673085
2	16414	2.24	37.464658673085
2	16465	2.246	37.464658673085
2	16518	2.252	37.464658673085
2	16570	2.258	37.464658673085
2	16622	2.264	37.464658673085
2	16674	2.27	37.464658673085
2	16725	2.276	37.464658673085
2	16778	2.282	37.464658673085
2	16830	2.288	37.464658673085
2	16882	2.294	37.464658673085
2	16934	2.3	37.464658673085
2	16985	2.306	37.464658673085
2	17038	2.312	37.464658673085
2	17090	2.318	37.464658673085
2	17142	2.324	37.464658673085
2	17194	2.33	37.464658673085
2	17245	2.336	37.464658673085
2	17298	2.342	37.464658673085
2	17350	2.348	37.464658673085
2	17402	2.354	37.464658673085
2	17454	2.36	37.464658673085
2	17505	2.366	37.464658673085
2	17558	2.372	37.464658673085
2	17610	2.378	37.464658673085
2	17662	2.384	37.464658673085
2	17714	2.39	37.464658673085
2	17765	2.396	37.464658673085
2	17818	2.402	37.464658673085
2	17870	2.408	37.464658673085
2	17922	2.414	37.464658673085
2	17974	2.42	37.464658673085
2	18025	2.426	37.464658673085
2	18078	2.432	37.464658673085
2	18130	2.438	37.464658673085
2	18182	2.444	37.464658673085
2	18234	2.45	37.464658673085
2	18285	2.456	37.464658673085
2	18338	2.462	37.464658673085
2	18390	2.468	37.464658673085
2	18442	2.474	37.464658673085
2	18494	2.48	37.464658673085
2	18545	2.486	37.464658673085
2	18598	2.492	37.464658673085
2	18650	2.498	37.464658673085
2	18702	2.504	37.464658673085
2	18754	2.51	37.464658673085
2	18805	2.516	37.464658673085
2	18858	2.522	37.464658673085
2	18910	2.528	37.464658673085
2	18962	2.534	37.464658673085
2	19014	2.54	37.464658673085
2	19065	2.546	37.464658673085
2	19118	2.552	37.464658673085
2	19170	2.558	37.464658673085
2	19222	2.564	37.464658673085
2	19274	2.57	37.464658673085
2	19325	2.576	37.464658673085
2	19378	2.582	37.464658673085
2	19430	2.588	37.464658673085
2	19482	2.594	37.464658673085
2	19534	2.6	37.464658673085
2	19585	2.606	37.464658673085
2	19638	2.612	37.464658673085
2	19690	2.618	37.464658673085
2	19742	2.624	37.464658673085
2	19794	2.63	37.464658673085
2	19845	2.636	37.464658673085
2	19898	2.642	37.464658673085
2	19950	2.648	37.464658673085
2	20002	2.654	37.464658673085
2	20054	2.66	37.464658673085
2	20105	2.666	37.464658673085
2	20158	2.672	37.464658673085
2	20210	2.678	37.464658673085
2	20262	2.684	37.464658673085
2	20314	2.69	37.464658673085
2	20365	2.696	37.464658673085
2	20418	2.702	37.464658673085
2	20470	2.708	37.464658673085
2	20522	2.714	37.464658673085
2	20574	2.72	37.464658673085
2	20625	2.726	37.464658673085
2	20678	2.732	37.464658673085
2	20730	2.738	37.464658673085
2	20782	2.744	37.464658673085
2	20834	2.75	37.464658673085
2	20885	2.756	37.464658673085
2	20938	2.762	37.464658673085
2	20990	2.768	37.464658673085
2	21042	2.774	37.464658673085
2	21094	2.78	37.464658673085
2	21145	2.786	37.464658673085
2	21198	2.792	37.464658673085
2	21250	2.798	37.464658673085
2	21302	2.804	37.464658673085
2	21354	2.81	37.464658673085
2	21405	2.816	37.464658673085
2	21458	2.822	37.464658673085
2	21510	2.828	37.464658673085
2	21562	2.834	37.464658673085
2	21614	2.84	37.464658673085
2	21665	2.846	37.464658673085
2	21718	2.852	37.464658673085
2	21770	2.858	37.464658673085
2	21822	2.864	37.464658673085
2	21874	2.87	37.464658673085
2	21925	2.876	37.464658673085
2	21978	2.882	37.464658673085
2	22030	2.888	37.464658673085
2	22082	2.894	37.464658673085
2	22134	2.9	37.464658673085
2	22185	2.906	37.464658673085
2	22238	2.912	37.464658673085
2	22290	2.918	37.464658673085
2	22342	2.924	37.464658673085
2	22394	2.93	37.464658673085
2	22445	2.936	37.464658673085
2	22498	2.942	37.464658673085
2	22550	2.948	37.464658673085
2	22602	2.954	37.464658673085
2	22654	2.96	37.464658673085
2	22705	2.966	37.464658673085
2	22758	2.972	37.464658673085
2	22810	2.978	37.464658673085
2	22862	2.984	37.464658673085
2	22914	2.99	37.464658673085
2	22965	2.996	37.464658673085
2	23018	3.002	37.464658673085
2	23070	3.008	37.464658673085
2	23122	3.014	37.464658673085
2	23174	3.02	37.464658673085
2	23225	3.026	37.464658673085
2	23278	3.032	37.464658673085
2	23330	3.038	37.464658673085
2	23382	3.044	37.464658673085
2	23434	3.05	37.464658673085
2	23485	3.056	37.464658673085
2	23538	3.062	37.464658673085
2	23590	3.068	37.464658673085
2	23642	3.074	37.464658673085
2	23694	3.08	37.464658673085
2	23745	3.086	37.464658673085
2	23798	3.092	37.464658673085
2	23850	3.098	37.464658673085
2	23902	3.104	37.464658673085
2	23954	3.11	37.464658673085
2	24005	3.116	37.464658673085
2	24058	3.122	37.464658673085
2	24110	3.128	37.464658673085
2	24162	3.134	37.464658673085
2	24214	3.14	37.464658673085
2	24265	3.146	37.464658673085
2	24318	3.152	37.464658673085
2	24370	3.158	37.464658673085
2	24422	3.164	37.464658673085
2	24474	3.17	37.464658673085
2	24525	3.176	37.464658673085
2	24578	3.182	37.464658673085
2	24630	3.188	37.464658673085
2	24682	3.194	37.464658673085
2	24734	3.2	37.464658673085
2	24785	3.206	37.464658673085
2	24838	3.212	37.464658673085
2	24890	3.218	37.464658673085
2	24942	3.224	37.464658673085
2	24994	3.23	37.464658673085
2	25045	3.236	37.464658673085
2	25098	3.242	37.464658673085
2	25150	3.248	37.464658673085
2	25202	3.254	37.464658673085
2	25254	3.26	37.464658673085
2	25305	3.266	37.464658673085
2	25358	3.272	37.464658673085
2	25410	3.278	37.464658673085
2	25462	3.284	37.464658673085
2	25514	3.29	37.464658673085
2	25565	3.296	37.464658673085
2	25618	3.302	37.464658673085
2	25670	3.308	37.464658673085
2	25722	3.314	37.464658673085
2	25774	3.32	37.464658673085
2	25825	3.326	37.464658673085
2	25878	3.332	37.464658673085
2	25930	3.338	37.464658673085
2	25982	3.344	37.464658673085
2	26034	3.35	37.464658673085
2	26085	3.356	37.464658673085
2	26138	3.362	37.464658673085
2	26190	3.368	37.464658673085
2	26242	3.374	37.464658673085
2	26294	3.38	37.464658673085
2	26345	3.386	37.464658673085
2	26398	3.392	37.464658673085
2	26450	3.398	37.464658673085
2	26502	3.404	37.464658673085
2	26554	3.41	37.464658673085
2	26605	3.416	37.464658673085
2	26658	3.422	37.464658673085
2	26710	3.428	37.464658673085
2	26762	3.434	37.464658673085
2	26814	3.44	37.464658673085
2	26865	3.446	37.464658673085
2	26918	3.452	37.464658673085
2	26970	3.458	37.464658673085
2	27022	3.464	37.464658673085
2	27074	3.47	37.464658673085
2	27125	3.476	37.464658673085
2	27178	3.482	37.464658673085
2	27230	3.488	37.464658673085
2	27282	3.494	37.464658673085
2	27334	3.5	37.464658673085
2	27385	3.506	37.464658673085
2	27438	3.512	37.464658673085
2	27490	3.518	37.464658673085
2	27542	3.524	37.464658673085
2	27594	3.53	37.464658673085
2	27645	3.536	37.464658673085
2	27698	3.542	37.464658673085
2	27750	3.548	37.464658673085
2	27802	3.554	37.464658673085
2	27854	3.56	37.464658673085
2	27905	3.566	37.464658673085
2	27958	3.572	37.464658673085
2	28010	3.578	37.464658673085
2	28062	3.584	37.464658673085
2	28114	3.59	37.464658673085
2	28165	3.596	37.464658673085
2	28218	3.602	37.464658673085
2	28270	3.608	37.464658673085
2	28322	3.614	37.464658673085
2	28374	3.62	37.464658673085
2	28425	3.626	37.464658673085
2	28478	3.632	37.464658673085
2	28530	3.638	37.464658673085
2	28582	3.644	37.464658673085
2	28634	3.65	37.464658673085
2	28685	3.656	37.464658673085
2	28738	3.662	37.464658673085
2	28790	3.668	37.464658673085
2	28842	3.674	37.464658673085
2	28894	3.68	37.464658673085
2	28945	3.686	37.464658673085
2	28998	3.692	37.464658673085
2	29050	3.698	37.464658673085
2	29102	3.704	37.464658673085
2	29154	3.71	37.464658673085
2	29205	3.716	37.464658673085
2	29258	3.722	37.464658673085
2	29310	3.728	37.464658673085
2	29362	3.734	37.464658673085
2	29414	3.74	37.464658673085
2	29465	3.746	37.464658673085
2	29518	3.752	37.464658673085
2	29570	3.758	37.464658673085
2	29622	3.764	37.464658673085
2	29674	3.77	37.464658673085
2	29725	3.776	37.464658673085
2	29778	3.782	37.464658673085
2	29830	3.788	37.464658673085
2	29882	3.794	37.464658673085
2	29934	3.8	37.464658673085
2	29985	3.806	37.464658673085
2	30038	3.812	37.464658673085
2	30090	3.818	37.464658673085
2	30142	3.824	37.464658673085
2	30194	3.83	37.464658673085
2	30245	3.836	37.464658673085
2	30298	3.842	37.464658673085
2	30350	3.848	37.464658673085
2	30402	3.854	37.464658673085
2	30454	3.86	37.464658673085
2	30505	3.866	37.464658673085
2	30558	3.872	37.464658673085
2	30610	3.878	37.464658673085
2	30662	3.884	37.464658673085
2	30714	3.89	37.464658673085
2	30765	3.896	37.464658673085
2	30818	3.902	37.464658673085
2	30870	3.908	37.464658673085
2	30922	3.914	37.464658673085
2	30974	3.92	37.464658673085
2	31025	3.926	37.464658673085
2	31078	3.932	37.464658673085
2	31130	3.938	37.464658673085
2	31182	3.944	37.464658673085
2	31234	3.95	37.464658673085
2	31285	3.956	37.464658673085
2	31338	3.962	37.464658673085
2	31390	3.968	37.464658673085
2	31442	3.974	37.464658673085
2	31494	3.98	37.464658673085
2	31545	3.986	37.464658673085
2	31598	3.992	37.464658673085
2	31650	3.998	37.464658673085
2	31702	4.004	37.464658673085
2	31754	4.01	37.464658673085
2	31805	4.016	37.464658673085
2	31858	4.022	37.464658673085
2	31910	4.028	37.464658673085
2	31962	4.034	37.464658673085
2	32014	4.04	37.464658673085
2	32065	4.046	37.464658673085
2	32118	4.052	37.464658673085
2	32170	4.058	37.464658673085
2	32222	4.064	37.464658673085
2	32274	4.07	37.464658673085
2	32325	4.076	37.464658673085
2	32378	4.082	37.464658673085
2	32430	4.088	37.464658673085
2	32482	4.094	37.464658673085
2	32534	4.1	37.464658673085
2	32585	4.106	37.464658673085
2	32638	4.112	37.464658673085
2	32690	4.118	37.464658673085
2	32742	4.124	37.464658673085
2	32794	4.13	37.464658673085
2	32845	4.136	37.464658673085
2	32898	4.142	37.464658673085
2	32950	4.148	37.464658673085
2	33002	4.154	37.464658673085
2	33054	4.16	37.464658673085
2	33105	4.166	37.464658673085
2	33158	4.172	37.464658673085
2	33210	4.178	37.464658673085
2	33262	4.184	37.464658673085
2	33314	4.19	37.464658673085
2	33365	4.196	37.464658673085
2	33418	4.202	37.464658673085
2	33470	4.208	37.464658673085
2	33522	4.214	37.464658673085
2	33574	4.22	37.464658673085
2	33625	4.226	37.464658673085
2	33678	4.232	37.464658673085
2	33730	4.238	37.464658673085
2	33782	4.244	37.464658673085
2	33834	4.25	37.464658673085
2	33885	4.256	37.464658673085
2	33938	4.262	37.464658673085
2	33990	4.268	37.464658673085
2	34042	4.274	37.464658673085
2	34094	4.28	37.464658673085
2	34145	4.286	37.464658673085
2	34198	4.292	37.464658673085
2	34250	4.298	37.464658673085
2	34302	4.304	37.464658673085
2	34354	4.31	37.464658673085
2	34405	4.316	37.464658673085
2	34458	4.322	37.464658673085
2	34510	4.328	37.464658673085
2	34562	4.334	37.464658673085
2	34614	4.34	37.464658673085
2	34665	4.346	37.464658673085
2	34718	4.352	37.464658673085
2	34770	4.358	37.464658673085
2	34822	4.364	37.464658673085
2	34874	4.37	37.464658673085
2	34925	4.376	37.464658673085
2	34978	4.382	37.464658673085
2	35030	4.388	37.464658673085
2	35082	4.394	37.464658673085
2	35134	4.4	37.464658673085
2	35185	4.406	37.464658673085
2	35238	4.412	37.464658673085
2	35290	4.418	37.464658673085
2	35342	4.424	37.464658673085
2	35394	4.43	37.464658673085
2	35445	4.436	37.464658673085
2	35498	4.442	37.464658673085
2	35550	4.448	37.464658673085
2	35602	4.454	37.464658673085
2	35654	4.46	37.464658673085
2	35705	4.466	37.464658673085
2	35758	4.472	37.464658673085
2	35810	4.478	37.464658673085
2	35862	4.484	37.464658673085
2	35914	4.49	37.464658673085
2	35965	4.496	37.464658673085
2	36018	4.502	37.464658673085
2	36070	4.508	37.464658673085
2	36122	4.514	37.464658673085
2	36174	4.52	37.464658673085
2	36225	4.526	37.464658673085
2	36278	4.532	37.464658673085
2	36330	4.538	37.464658673085
2	36382	4.544	37.464658673085
2	36434	4.55	37.464658673085
2	36485	4.556	37.464658673085
2	36538	4.562	37.464658673085
2	36590	4.568	37.464658673085
2	36642	4.574	37.464658673085
2	36694	4.58	37.464658673085
2	36745	4.586	37.464658673085
2	36798	4.592	37.464658673085
2	36850	4.598	37.464658673085
2	36902	4.604	37.464658673085
2	36954	4.61	37.464658673085
2	37005	4.616	37.464658673085
2	37058	4.622	37.464658673085
2	37110	4.628	37.464658673085
2	37162	4.634	37.464658673085
2	37214	4.64	37.464658673085
2	37265	4.646	37.464658673085
2	37318	4.652	37.464658673085
2	37370	4.658	37.464658673085
2	37422	4.664	37.464658673085
2	37474	4.67	37.464658673085
2	37525	4.676	37.464658673085
2	37578	4.682	37.464658673085
2	37630	4.688	37.464658673085
2	37682	4.694	37.464658673085
2	37734	4.7	37.464658673085
2	37785	4.706	37.464658673085
2	37838	4.712	37.464658673085
2	37890	4.718	37.464658673085
2	37942	4.724	37.464658673085
2	37994	4.73	37.464658673085
2	38045	4.736	37.464658673085
2	38098	4.742	37.464658673085
2	38150	4.748	37.464658673085
2	38202	4.754	37.464658673085
2	38254	4.76	37.464658673085
2	38305	4.766	37.464658673085
2	38358	4.772	37.464658673085
2	38410	4.778	37.464658673085
2	38462	4.784	37.464658673085
2	38514	4.79	37.464658673085
2	38565	4.796	37.464658673085
2	38618	4.802	37.464658673085
2	38670	4.808	37.464658673085
2	38722	4.814	37.464658673085
2	38774	4.82	37.464658673085
2	38825	4.826	37.464658673085
2	38878	4.832	37.464658673085
2	38930	4.838	37.464658673085
2	38982	4.844	37.464658673085
2	39034	4.85	37.464658673085
2	39085	4.856	37.464658673085
2	39138	4.862	37.464658673085
2	39190	4.868	37.464658673085
2	39242	4.874	37.464658673085
2	39294	4.88	37.464658673085
2	39345	4.886	37.464658673085
2	39398	4.892	37.464658673085
2	39450	4.898	37.464658673085
2	39502	4.904	37.464658673085
2	39554	4.91	37.464658673085
2	39605	4.916	37.464658673085
2	39658	4.922	37.464658673085
2	39710	4.928	37.464658673085
2	39762	4.934	37.464658673085
2	39814	4.94	37.464658673085
2	39865	4.946	37.464658673085
2	39918	4.952	37.464658673085
2	39970	4.958	37.464658673085
2	40022	4.964	37.464658673085
2	40074	4.97	37.464658673085
2	40125	4.976	37.464658673085
2	40178	4.982	37.464658673085
2	40230	4.988	37.464658673085
2	40282	4.994	37.464658673085
2	40334	5	37.464658673085
2	40385	5.006	37.464658673085
2	40438	5.012	37.464658673085
2	40490	5.018	37.464658673085
2	40542	5.024	37.464658673085
2	40594	5.03	37.464658673085
2	40645	5.036	37.464658673085
2	40698	5.042	37.464658673085
2	40750	5.048	37.464658673085
2	40802	5.054	37.464658673085
2	40854	5.06	37.464658673085
2	40905	5.066	37.464658673085
2	40958	5.072	37.464658673085
2	41010	5.078	37.464658673085
2	41062	5.084	37.464658673085
2	41114	5.09	37.464658673085
2	41165	5.096	37.464658673085
2	41218	5.102	37.464658673085
2	41270	5.108	37.464658673085
2	41322	5.114	37.464658673085
2	41374	5.12	37.464658673085
2	41425	5.126	37.464658673085
2	41478	5.132	37.464658673085
2	41530	5.138	37.464658673085
2	41582	5.144	37.464658673085
2	41634	5.15	37.464658673085
2	41685	5.156	37.464658673085
2	41738	5.162	37.464658673085
2	41790	5.168	37.464658673085
2	41842	5.174	37.464658673085
2	41894	5.18	37.464658673085
2	41945	5.186	37.464658673085
2	41998	5.192	37.464658673085
2	42050	5.198	37.464658673085
2	42102	5.204	37.464658673085
2	42154	5.21	37.464658673085
2	42205	5.216	37.464658673085
2	42258	5.222	37.464658673085
2	42310	5.228	37.464658673085
2	42362	5.234	37.464658673085
2	42414	5.24	37.464658673085
2	42465	5.246	37.464658673085
2	42518	5.252	37.464658673085
2	42570	5.258	37.464658673085
2	42622	5.264	37.464658673085
2	42674	5.27	37.464658673085
2	42725	5.276	37.464658673085
2	42778	5.282	37.464658673085
2	42830	5.288	37.464658673085
2	42882	5.294	37.464658673085
2	42934	5.3	37.464658673085
2	42985	5.306	37.464658673085
2	43038	5.312	37.464658673085
2	43090	5.318	37.464658673085
2	43142	5.324	37.464658673085
2	43194	5.33	37.464658673085
2	43245	5.336	37.464658673085
2	43298	5.342	37.464658673085
2	43350	5.348	37.464658673085
2	43402	5.354	37.464658673085
2	43454	5.36	37.464658673085
2	43505	5.366	37.464658673085
2	43558	5.372	37.464658673085
2	43610	5.378	37.464658673085
2	43662	5.384	37.464658673085
2	43714	5.39	37.464658673085
2	43765	5.396	37.464658673085
2	43818	5.402	37.464658673085
2	43870	5.408	37.464658673085
2	43922	5.414	37.464658673085
2	43974	5.42	37.464658673085
2	44025	5.426	37.464658673085
2	44078	5.432	37.464658673085
2	44130	5.438	37.464658673085
2	44182	5.444	37.464658673085
2	44234	5.45	37.464658673085
2	44285	5.456	37.464658673085
2	44338	5.462	37.464658673085
2	44390	5.468	37.464658673085
2	44442	5.474	37.464658673085
2	44494	5.48	37.464658673085
2	44545	5.486	37.464658673085
2	44598	5.492	37.464658673085
2	44650	5.498	37.464658673085
2	44702	5.504	37.464658673085
2	44754	5.51	37.464658673085
2	44805	5.516	37.464658673085
2	44858	5.522	37.464658673085
2	44910	5.528	37.464658673085
2	44962	5.534	37.464658673085
2	45014	5.54	37.464658673085
2	45065	5.546	37.464658673085
2	45118	5.552	37.464658673085
2	45170	5.558	37.464658673085
2	45222	5.564	37.464658673085
2	45274	5.57	37.464658673085
2	45325	5.576	37.464658673085
2	45378	5.582	37.464658673085
2	45430	5.588	37.464658673085
2	45482	5.594	37.464658673085
2	45534	5.6	37.464658673085
2	45585	5.606	37.464658673085
2	45638	5.612	37.464658673085
2	45690	5.618	37.464658673085
2	45742	5.624	37.464658673085
2	45794	5.63	37.464658673085
2	45845	5.636	37.464658673085
2	45898	5.642	37.464658673085
2	45950	5.648	37.464658673085
2	46002	5.654	37.464658673085
2	46054	5.66	37.464658673085
2	46105	5.666	37.464658673085
2	46158	5.672	37.464658673085
2	46210	5.678	37.464658673085
2	46262	5.684	37.464658673085
2	46314	5.69	37.464658673085
2	46365	5.696	37.464658673085
2	46418	5.702	37.464658673085
2	46470	5.708	37.464658673085
2	46522	5.714	37.464658673085
2	46574	5.72	37.464658673085
2	46625	5.726	37.464658673085
2	46678	5.732	37.464658673085
2	46730	5.738	37.464658673085
2	46782	5.744	37.464658673085
2	46834	5.75	37.464658673085
2	46885	5.756	37.464658673085
2	46938	5.762	37.464658673085
2	46990	5.768	37.464658673085
2	47042	5.774	37.464658673085
2	47094	5.78	37.464658673085
2	47145	5.786	37.464658673085
2	47198	5.792	37.464658673085
2	47250	5.798	37.464658673085
2	47302	5.804	37.464658673085
2	47354	5.81	37.464658673085
2	47405	5.816	37.464658673085
2	47458	5.822	37.464658673085
2	47510	5.828	37.464658673085
2	47562	5.834	37.464658673085
2	47614	5.84	37.464658673085
2	47665	5.846	37.464658673085
2	47718	5.852	37.464658673085
2	47770	5.858	37.464658673085
2	47822	5.864	37.464658673085
2	47874	5.87	37.464658673085
2	47925	5.876	37.464658673085
2	47978	5.882	37.464658673085
2	48030	5.888	37.464658673085
2	48082	5.894	37.464658673085
2	48134	5.9	37.464658673085
2	48185	5.906	37.464658673085
2	48238	5.912	37.464658673085
2	48290	5.918	37.464658673085
2	48342	5.924	37.464658673085
2	48394	5.93	37.464658673085
2	48445	5.936	37.464658673085
2	48498	5.942	37.464658673085
2	48550	5.948	37.464658673085
2	48602	5.954	37.464658673085
2	48654	5.96	37.464658673085
2	48705	5.966	37.464658673085
2	48758	5.972	37.464658673085
2	48810	5.978	37.464658673085
2	48862	5.984	37.464658673085
2	48914	5.99	37.464658673085