version 2
run Double-2-20150802-15:09:10-3081
attr configname Double
attr datetime 20150802-15:09:10
attr experiment Double
attr inifile ./simulations/single/omnetpp1.ini
attr iterationvars $0=100m
attr iterationvars2 "$0=100m, $repetition=0"
attr measurement $0=100m
attr network lte_d2d.simulations.networks.onepair
attr processid 3081
attr repetition 0
attr replication #0
attr resultdir results
attr runnumber 2
attr seedset 2

vector 4  onepair.master.nic.phy  SINR_dlvect:vector  ETV
attr source  SINR_dlvect
attr title  "vector of SINR, vector"
attr unit  db
4	7	0.002	25.982839748279
4	23	0.008	25.982839748279
4	39	0.014	25.982839748279
4	55	0.02	25.982839748279
4	71	0.026	25.982839748279
4	87	0.032	25.982839748279
4	103	0.038	25.982839748279
4	119	0.044	25.982839748279
4	135	0.05	25.982839748279
4	151	0.056	25.982839748279
4	167	0.062	25.982839748279
4	183	0.068	25.982839748279
4	199	0.074	25.982839748279
4	215	0.08	25.982839748279
4	231	0.086	25.982839748279
4	247	0.092	25.982839748279
4	263	0.098	25.982839748279
4	279	0.104	25.982839748279
4	295	0.11	25.982839748279
4	311	0.116	25.982839748279
4	327	0.122	25.982839748279
4	343	0.128	25.982839748279
4	359	0.134	25.982839748279
4	375	0.14	25.982839748279
4	391	0.146	25.982839748279
4	407	0.152	25.982839748279
4	423	0.158	25.982839748279
4	439	0.164	25.982839748279
4	455	0.17	25.982839748279
4	471	0.176	25.982839748279
4	487	0.182	25.982839748279
4	503	0.188	25.982839748279
4	519	0.194	25.982839748279
4	535	0.2	25.982839748279
4	551	0.206	25.982839748279
4	567	0.212	25.982839748279
4	583	0.218	25.982839748279
4	599	0.224	25.982839748279
4	615	0.23	25.982839748279
4	631	0.236	25.982839748279
4	647	0.242	25.982839748279
4	663	0.248	25.982839748279
4	679	0.254	25.982839748279
4	695	0.26	25.982839748279
4	711	0.266	25.982839748279
4	727	0.272	25.982839748279
4	743	0.278	25.982839748279
4	759	0.284	25.982839748279
4	775	0.29	25.982839748279
4	791	0.296	25.982839748279
4	807	0.302	25.982839748279
4	823	0.308	25.982839748279
4	839	0.314	25.982839748279
4	855	0.32	25.982839748279
4	871	0.326	25.982839748279
4	887	0.332	25.982839748279
4	903	0.338	25.982839748279
4	919	0.344	25.982839748279
4	935	0.35	25.982839748279
4	951	0.356	25.982839748279
4	967	0.362	25.982839748279
4	983	0.368	25.982839748279
4	999	0.374	25.982839748279
4	1015	0.38	25.982839748279
4	1031	0.386	25.982839748279
4	1047	0.392	25.982839748279
4	1063	0.398	25.982839748279
4	1079	0.404	25.982839748279
4	1095	0.41	25.982839748279
4	1111	0.416	25.982839748279
4	1127	0.422	25.982839748279
4	1143	0.428	25.982839748279
4	1159	0.434	25.982839748279
4	1175	0.44	25.982839748279
4	1191	0.446	25.982839748279
4	1207	0.452	25.982839748279
4	1223	0.458	25.982839748279
4	1239	0.464	25.982839748279
4	1255	0.47	25.982839748279
4	1271	0.476	25.982839748279
4	1287	0.482	25.982839748279
4	1303	0.488	25.982839748279
4	1319	0.494	25.982839748279
4	1339	0.5	25.982839748279
4	1385	0.506	25.982839748279
4	1438	0.512	25.982839748279
4	1490	0.518	25.982839748279
4	1542	0.524	25.982839748279
4	1594	0.53	25.982839748279
4	1645	0.536	25.982839748279
4	1698	0.542	25.982839748279
4	1750	0.548	25.982839748279
4	1802	0.554	25.982839748279
4	1854	0.56	25.982839748279
4	1905	0.566	25.982839748279
4	1958	0.572	25.982839748279
4	2010	0.578	25.982839748279
4	2062	0.584	25.982839748279
4	2114	0.59	25.982839748279
4	2165	0.596	25.982839748279
4	2218	0.602	25.982839748279
4	2270	0.608	25.982839748279
4	2322	0.614	25.982839748279
4	2374	0.62	25.982839748279
4	2425	0.626	25.982839748279
4	2478	0.632	25.982839748279
4	2530	0.638	25.982839748279
4	2582	0.644	25.982839748279
4	2634	0.65	25.982839748279
4	2685	0.656	25.982839748279
4	2738	0.662	25.982839748279
4	2790	0.668	25.982839748279
4	2842	0.674	25.982839748279
4	2894	0.68	25.982839748279
4	2945	0.686	25.982839748279
4	2998	0.692	25.982839748279
4	3050	0.698	25.982839748279
4	3102	0.704	25.982839748279
4	3154	0.71	25.982839748279
4	3205	0.716	25.982839748279
4	3258	0.722	25.982839748279
4	3310	0.728	25.982839748279
4	3362	0.734	25.982839748279
4	3414	0.74	25.982839748279
4	3465	0.746	25.982839748279
4	3518	0.752	25.982839748279
4	3570	0.758	25.982839748279
4	3622	0.764	25.982839748279
4	3674	0.77	25.982839748279
4	3725	0.776	25.982839748279
4	3778	0.782	25.982839748279
4	3830	0.788	25.982839748279
4	3882	0.794	25.982839748279
4	3934	0.8	25.982839748279
4	3985	0.806	25.982839748279
4	4038	0.812	25.982839748279
4	4090	0.818	25.982839748279
4	4142	0.824	25.982839748279
4	4194	0.83	25.982839748279
4	4245	0.836	25.982839748279
4	4298	0.842	25.982839748279
4	4350	0.848	25.982839748279
4	4402	0.854	25.982839748279
4	4454	0.86	25.982839748279
4	4505	0.866	25.982839748279
4	4558	0.872	25.982839748279
4	4610	0.878	25.982839748279
4	4662	0.884	25.982839748279
4	4714	0.89	25.982839748279
4	4765	0.896	25.982839748279
4	4818	0.902	25.982839748279
4	4870	0.908	25.982839748279
4	4922	0.914	25.982839748279
4	4974	0.92	25.982839748279
4	5025	0.926	25.982839748279
4	5078	0.932	25.982839748279
4	5130	0.938	25.982839748279
4	5182	0.944	25.982839748279
4	5234	0.95	25.982839748279
4	5285	0.956	25.982839748279
4	5338	0.962	25.982839748279
4	5390	0.968	25.982839748279
4	5442	0.974	25.982839748279
4	5494	0.98	25.982839748279
4	5545	0.986	25.982839748279
4	5598	0.992	25.982839748279
4	5650	0.998	25.982839748279
4	5702	1.004	25.982839748279
4	5754	1.01	25.982839748279
4	5805	1.016	25.982839748279
4	5858	1.022	25.982839748279
4	5910	1.028	25.982839748279
4	5962	1.034	25.982839748279
4	6014	1.04	25.982839748279
4	6065	1.046	25.982839748279
4	6118	1.052	25.982839748279
4	6170	1.058	25.982839748279
4	6222	1.064	25.982839748279
4	6274	1.07	25.982839748279
4	6325	1.076	25.982839748279
4	6378	1.082	25.982839748279
4	6430	1.088	25.982839748279
4	6482	1.094	25.982839748279
4	6534	1.1	25.982839748279
4	6585	1.106	25.982839748279
4	6638	1.112	25.982839748279
4	6690	1.118	25.982839748279
4	6742	1.124	25.982839748279
4	6794	1.13	25.982839748279
4	6845	1.136	25.982839748279
4	6898	1.142	25.982839748279
4	6950	1.148	25.982839748279
4	7002	1.154	25.982839748279
4	7054	1.16	25.982839748279
4	7105	1.166	25.982839748279
4	7158	1.172	25.982839748279
4	7210	1.178	25.982839748279
4	7262	1.184	25.982839748279
4	7314	1.19	25.982839748279
4	7365	1.196	25.982839748279
4	7418	1.202	25.982839748279
4	7470	1.208	25.982839748279
4	7522	1.214	25.982839748279
4	7574	1.22	25.982839748279
4	7625	1.226	25.982839748279
4	7678	1.232	25.982839748279
4	7730	1.238	25.982839748279
4	7782	1.244	25.982839748279
4	7834	1.25	25.982839748279
4	7885	1.256	25.982839748279
4	7938	1.262	25.982839748279
4	7990	1.268	25.982839748279
4	8042	1.274	25.982839748279
4	8094	1.28	25.982839748279
4	8145	1.286	25.982839748279
4	8198	1.292	25.982839748279
4	8250	1.298	25.982839748279
4	8302	1.304	25.982839748279
4	8354	1.31	25.982839748279
4	8405	1.316	25.982839748279
4	8458	1.322	25.982839748279
4	8510	1.328	25.982839748279
4	8562	1.334	25.982839748279
4	8614	1.34	25.982839748279
4	8665	1.346	25.982839748279
4	8718	1.352	25.982839748279
4	8770	1.358	25.982839748279
4	8822	1.364	25.982839748279
4	8874	1.37	25.982839748279
4	8925	1.376	25.982839748279
4	8978	1.382	25.982839748279
4	9030	1.388	25.982839748279
4	9082	1.394	25.982839748279
4	9134	1.4	25.982839748279
4	9185	1.406	25.982839748279
4	9238	1.412	25.982839748279
4	9290	1.418	25.982839748279
4	9342	1.424	25.982839748279
4	9394	1.43	25.982839748279
4	9445	1.436	25.982839748279
4	9498	1.442	25.982839748279
4	9550	1.448	25.982839748279
4	9602	1.454	25.982839748279
4	9654	1.46	25.982839748279
4	9705	1.466	25.982839748279
4	9758	1.472	25.982839748279
4	9810	1.478	25.982839748279
4	9862	1.484	25.982839748279
4	9914	1.49	25.982839748279
4	9965	1.496	25.982839748279
4	10018	1.502	25.982839748279
4	10070	1.508	25.982839748279
4	10122	1.514	25.982839748279
4	10174	1.52	25.982839748279
4	10225	1.526	25.982839748279
4	10278	1.532	25.982839748279
4	10330	1.538	25.982839748279
4	10382	1.544	25.982839748279
4	10434	1.55	25.982839748279
4	10485	1.556	25.982839748279
4	10538	1.562	25.982839748279
4	10590	1.568	25.982839748279
4	10642	1.574	25.982839748279
4	10694	1.58	25.982839748279
4	10745	1.586	25.982839748279
4	10798	1.592	25.982839748279
4	10850	1.598	25.982839748279
4	10902	1.604	25.982839748279
4	10954	1.61	25.982839748279
4	11005	1.616	25.982839748279
4	11058	1.622	25.982839748279
4	11110	1.628	25.982839748279
4	11162	1.634	25.982839748279
4	11214	1.64	25.982839748279
4	11265	1.646	25.982839748279
4	11318	1.652	25.982839748279
4	11370	1.658	25.982839748279
4	11422	1.664	25.982839748279
4	11474	1.67	25.982839748279
4	11525	1.676	25.982839748279
4	11578	1.682	25.982839748279
4	11630	1.688	25.982839748279
4	11682	1.694	25.982839748279
4	11734	1.7	25.982839748279
4	11785	1.706	25.982839748279
4	11838	1.712	25.982839748279
4	11890	1.718	25.982839748279
4	11942	1.724	25.982839748279
4	11994	1.73	25.982839748279
4	12045	1.736	25.982839748279
4	12098	1.742	25.982839748279
4	12150	1.748	25.982839748279
4	12202	1.754	25.982839748279
4	12254	1.76	25.982839748279
4	12305	1.766	25.982839748279
4	12358	1.772	25.982839748279
4	12410	1.778	25.982839748279
4	12462	1.784	25.982839748279
4	12514	1.79	25.982839748279
4	12565	1.796	25.982839748279
4	12618	1.802	25.982839748279
4	12670	1.808	25.982839748279
4	12722	1.814	25.982839748279
4	12774	1.82	25.982839748279
4	12825	1.826	25.982839748279
4	12878	1.832	25.982839748279
4	12930	1.838	25.982839748279
4	12982	1.844	25.982839748279
4	13034	1.85	25.982839748279
4	13085	1.856	25.982839748279
4	13138	1.862	25.982839748279
4	13190	1.868	25.982839748279
4	13242	1.874	25.982839748279
4	13294	1.88	25.982839748279
4	13345	1.886	25.982839748279
4	13398	1.892	25.982839748279
4	13450	1.898	25.982839748279
4	13502	1.904	25.982839748279
4	13554	1.91	25.982839748279
4	13605	1.916	25.982839748279
4	13658	1.922	25.982839748279
4	13710	1.928	25.982839748279
4	13762	1.934	25.982839748279
4	13814	1.94	25.982839748279
4	13865	1.946	25.982839748279
4	13918	1.952	25.982839748279
4	13970	1.958	25.982839748279
4	14022	1.964	25.982839748279
4	14074	1.97	25.982839748279
4	14125	1.976	25.982839748279
4	14178	1.982	25.982839748279
4	14230	1.988	25.982839748279
4	14282	1.994	25.982839748279
4	14334	2	25.982839748279
4	14385	2.006	25.982839748279
4	14438	2.012	25.982839748279
4	14490	2.018	25.982839748279
4	14542	2.024	25.982839748279
4	14594	2.03	25.982839748279
4	14645	2.036	25.982839748279
4	14698	2.042	25.982839748279
4	14750	2.048	25.982839748279
4	14802	2.054	25.982839748279
4	14854	2.06	25.982839748279
4	14905	2.066	25.982839748279
4	14958	2.072	25.982839748279
4	15010	2.078	25.982839748279
4	15062	2.084	25.982839748279
4	15114	2.09	25.982839748279
4	15165	2.096	25.982839748279
4	15218	2.102	25.982839748279
4	15270	2.108	25.982839748279
4	15322	2.114	25.982839748279
4	15374	2.12	25.982839748279
4	15425	2.126	25.982839748279
4	15478	2.132	25.982839748279
4	15530	2.138	25.982839748279
4	15582	2.144	25.982839748279
4	15634	2.15	25.982839748279
4	15685	2.156	25.982839748279
4	15738	2.162	25.982839748279
4	15790	2.168	25.982839748279
4	15842	2.174	25.982839748279
4	15894	2.18	25.982839748279
4	15945	2.186	25.982839748279
4	15998	2.192	25.982839748279
4	16050	2.198	25.982839748279
4	16102	2.204	25.982839748279
4	16154	2.21	25.982839748279
4	16205	2.216	25.982839748279
4	16258	2.222	25.982839748279
4	16310	2.228	25.982839748279
4	16362	2.234	25.982839748279
4	16414	2.24	25.982839748279
4	16465	2.246	25.982839748279
4	16518	2.252	25.982839748279
4	16570	2.258	25.982839748279
4	16622	2.264	25.982839748279
4	16674	2.27	25.982839748279
4	16725	2.276	25.982839748279
4	16778	2.282	25.982839748279
4	16830	2.288	25.982839748279
4	16882	2.294	25.982839748279
4	16934	2.3	25.982839748279
4	16985	2.306	25.982839748279
4	17038	2.312	25.982839748279
4	17090	2.318	25.982839748279
4	17142	2.324	25.982839748279
4	17194	2.33	25.982839748279
4	17245	2.336	25.982839748279
4	17298	2.342	25.982839748279
4	17350	2.348	25.982839748279
4	17402	2.354	25.982839748279
4	17454	2.36	25.982839748279
4	17505	2.366	25.982839748279
4	17558	2.372	25.982839748279
4	17610	2.378	25.982839748279
4	17662	2.384	25.982839748279
4	17714	2.39	25.982839748279
4	17765	2.396	25.982839748279
4	17818	2.402	25.982839748279
4	17870	2.408	25.982839748279
4	17922	2.414	25.982839748279
4	17974	2.42	25.982839748279
4	18025	2.426	25.982839748279
4	18078	2.432	25.982839748279
4	18130	2.438	25.982839748279
4	18182	2.444	25.982839748279
4	18234	2.45	25.982839748279
4	18285	2.456	25.982839748279
4	18338	2.462	25.982839748279
4	18390	2.468	25.982839748279
4	18442	2.474	25.982839748279
4	18494	2.48	25.982839748279
4	18545	2.486	25.982839748279
4	18598	2.492	25.982839748279
4	18650	2.498	25.982839748279
4	18702	2.504	25.982839748279
4	18754	2.51	25.982839748279
4	18805	2.516	25.982839748279
4	18858	2.522	25.982839748279
4	18910	2.528	25.982839748279
4	18962	2.534	25.982839748279
4	19014	2.54	25.982839748279
4	19065	2.546	25.982839748279
4	19118	2.552	25.982839748279
4	19170	2.558	25.982839748279
4	19222	2.564	25.982839748279
4	19274	2.57	25.982839748279
4	19325	2.576	25.982839748279
4	19378	2.582	25.982839748279
4	19430	2.588	25.982839748279
4	19482	2.594	25.982839748279
4	19534	2.6	25.982839748279
4	19585	2.606	25.982839748279
4	19638	2.612	25.982839748279
4	19690	2.618	25.982839748279
4	19742	2.624	25.982839748279
4	19794	2.63	25.982839748279
4	19845	2.636	25.982839748279
4	19898	2.642	25.982839748279
4	19950	2.648	25.982839748279
4	20002	2.654	25.982839748279
4	20054	2.66	25.982839748279
4	20105	2.666	25.982839748279
4	20158	2.672	25.982839748279
4	20210	2.678	25.982839748279
4	20262	2.684	25.982839748279
4	20314	2.69	25.982839748279
4	20365	2.696	25.982839748279
4	20418	2.702	25.982839748279
4	20470	2.708	25.982839748279
4	20522	2.714	25.982839748279
4	20574	2.72	25.982839748279
4	20625	2.726	25.982839748279
4	20678	2.732	25.982839748279
4	20730	2.738	25.982839748279
4	20782	2.744	25.982839748279
4	20834	2.75	25.982839748279
4	20885	2.756	25.982839748279
4	20938	2.762	25.982839748279
4	20990	2.768	25.982839748279
4	21042	2.774	25.982839748279
4	21094	2.78	25.982839748279
4	21145	2.786	25.982839748279
4	21198	2.792	25.982839748279
4	21250	2.798	25.982839748279
4	21302	2.804	25.982839748279
4	21354	2.81	25.982839748279
4	21405	2.816	25.982839748279
4	21458	2.822	25.982839748279
4	21510	2.828	25.982839748279
4	21562	2.834	25.982839748279
4	21614	2.84	25.982839748279
4	21665	2.846	25.982839748279
4	21718	2.852	25.982839748279
4	21770	2.858	25.982839748279
4	21822	2.864	25.982839748279
4	21874	2.87	25.982839748279
4	21925	2.876	25.982839748279
4	21978	2.882	25.982839748279
4	22030	2.888	25.982839748279
4	22082	2.894	25.982839748279
4	22134	2.9	25.982839748279
4	22185	2.906	25.982839748279
4	22238	2.912	25.982839748279
4	22290	2.918	25.982839748279
4	22342	2.924	25.982839748279
4	22394	2.93	25.982839748279
4	22445	2.936	25.982839748279
4	22498	2.942	25.982839748279
4	22550	2.948	25.982839748279
4	22602	2.954	25.982839748279
4	22654	2.96	25.982839748279
4	22705	2.966	25.982839748279
4	22758	2.972	25.982839748279
4	22810	2.978	25.982839748279
4	22862	2.984	25.982839748279
4	22914	2.99	25.982839748279
4	22965	2.996	25.982839748279
4	23018	3.002	25.982839748279
4	23070	3.008	25.982839748279
4	23122	3.014	25.982839748279
4	23174	3.02	25.982839748279
4	23225	3.026	25.982839748279
4	23278	3.032	25.982839748279
4	23330	3.038	25.982839748279
4	23382	3.044	25.982839748279
4	23434	3.05	25.982839748279
4	23485	3.056	25.982839748279
4	23538	3.062	25.982839748279
4	23590	3.068	25.982839748279
4	23642	3.074	25.982839748279
4	23694	3.08	25.982839748279
4	23745	3.086	25.982839748279
4	23798	3.092	25.982839748279
4	23850	3.098	25.982839748279
4	23902	3.104	25.982839748279
4	23954	3.11	25.982839748279
4	24005	3.116	25.982839748279
4	24058	3.122	25.982839748279
4	24110	3.128	25.982839748279
4	24162	3.134	25.982839748279
4	24214	3.14	25.982839748279
4	24265	3.146	25.982839748279
4	24318	3.152	25.982839748279
4	24370	3.158	25.982839748279
4	24422	3.164	25.982839748279
4	24474	3.17	25.982839748279
4	24525	3.176	25.982839748279
4	24578	3.182	25.982839748279
4	24630	3.188	25.982839748279
4	24682	3.194	25.982839748279
4	24734	3.2	25.982839748279
4	24785	3.206	25.982839748279
4	24838	3.212	25.982839748279
4	24890	3.218	25.982839748279
4	24942	3.224	25.982839748279
4	24994	3.23	25.982839748279
4	25045	3.236	25.982839748279
4	25098	3.242	25.982839748279
4	25150	3.248	25.982839748279
4	25202	3.254	25.982839748279
4	25254	3.26	25.982839748279
4	25305	3.266	25.982839748279
4	25358	3.272	25.982839748279
4	25410	3.278	25.982839748279
4	25462	3.284	25.982839748279
4	25514	3.29	25.982839748279
4	25565	3.296	25.982839748279
4	25618	3.302	25.982839748279
4	25670	3.308	25.982839748279
4	25722	3.314	25.982839748279
4	25774	3.32	25.982839748279
4	25825	3.326	25.982839748279
4	25878	3.332	25.982839748279
4	25930	3.338	25.982839748279
4	25982	3.344	25.982839748279
4	26034	3.35	25.982839748279
4	26085	3.356	25.982839748279
4	26138	3.362	25.982839748279
4	26190	3.368	25.982839748279
4	26242	3.374	25.982839748279
4	26294	3.38	25.982839748279
4	26345	3.386	25.982839748279
4	26398	3.392	25.982839748279
4	26450	3.398	25.982839748279
4	26502	3.404	25.982839748279
4	26554	3.41	25.982839748279
4	26605	3.416	25.982839748279
4	26658	3.422	25.982839748279
4	26710	3.428	25.982839748279
4	26762	3.434	25.982839748279
4	26814	3.44	25.982839748279
4	26865	3.446	25.982839748279
4	26918	3.452	25.982839748279
4	26970	3.458	25.982839748279
4	27022	3.464	25.982839748279
4	27074	3.47	25.982839748279
4	27125	3.476	25.982839748279
4	27178	3.482	25.982839748279
4	27230	3.488	25.982839748279
4	27282	3.494	25.982839748279
4	27334	3.5	25.982839748279
4	27385	3.506	25.982839748279
4	27438	3.512	25.982839748279
4	27490	3.518	25.982839748279
4	27542	3.524	25.982839748279
4	27594	3.53	25.982839748279
4	27645	3.536	25.982839748279
4	27698	3.542	25.982839748279
4	27750	3.548	25.982839748279
4	27802	3.554	25.982839748279
4	27854	3.56	25.982839748279
4	27905	3.566	25.982839748279
4	27958	3.572	25.982839748279
4	28010	3.578	25.982839748279
4	28062	3.584	25.982839748279
4	28114	3.59	25.982839748279
4	28165	3.596	25.982839748279
4	28218	3.602	25.982839748279
4	28270	3.608	25.982839748279
4	28322	3.614	25.982839748279
4	28374	3.62	25.982839748279
4	28425	3.626	25.982839748279
4	28478	3.632	25.982839748279
4	28530	3.638	25.982839748279
4	28582	3.644	25.982839748279
4	28634	3.65	25.982839748279
4	28685	3.656	25.982839748279
4	28738	3.662	25.982839748279
4	28790	3.668	25.982839748279
4	28842	3.674	25.982839748279
4	28894	3.68	25.982839748279
4	28945	3.686	25.982839748279
4	28998	3.692	25.982839748279
4	29050	3.698	25.982839748279
4	29102	3.704	25.982839748279
4	29154	3.71	25.982839748279
4	29205	3.716	25.982839748279
4	29258	3.722	25.982839748279
4	29310	3.728	25.982839748279
4	29362	3.734	25.982839748279
4	29414	3.74	25.982839748279
4	29465	3.746	25.982839748279
4	29518	3.752	25.982839748279
4	29570	3.758	25.982839748279
4	29622	3.764	25.982839748279
4	29674	3.77	25.982839748279
4	29725	3.776	25.982839748279
4	29778	3.782	25.982839748279
4	29830	3.788	25.982839748279
4	29882	3.794	25.982839748279
4	29934	3.8	25.982839748279
4	29985	3.806	25.982839748279
4	30038	3.812	25.982839748279
4	30090	3.818	25.982839748279
4	30142	3.824	25.982839748279
4	30194	3.83	25.982839748279
4	30245	3.836	25.982839748279
4	30298	3.842	25.982839748279
4	30350	3.848	25.982839748279
4	30402	3.854	25.982839748279
4	30454	3.86	25.982839748279
4	30505	3.866	25.982839748279
4	30558	3.872	25.982839748279
4	30610	3.878	25.982839748279
4	30662	3.884	25.982839748279
4	30714	3.89	25.982839748279
4	30765	3.896	25.982839748279
4	30818	3.902	25.982839748279
4	30870	3.908	25.982839748279
4	30922	3.914	25.982839748279
4	30974	3.92	25.982839748279
4	31025	3.926	25.982839748279
4	31078	3.932	25.982839748279
4	31130	3.938	25.982839748279
4	31182	3.944	25.982839748279
4	31234	3.95	25.982839748279
4	31285	3.956	25.982839748279
4	31338	3.962	25.982839748279
4	31390	3.968	25.982839748279
4	31442	3.974	25.982839748279
4	31494	3.98	25.982839748279
4	31545	3.986	25.982839748279
4	31598	3.992	25.982839748279
4	31650	3.998	25.982839748279
4	31702	4.004	25.982839748279
4	31754	4.01	25.982839748279
4	31805	4.016	25.982839748279
4	31858	4.022	25.982839748279
4	31910	4.028	25.982839748279
4	31962	4.034	25.982839748279
4	32014	4.04	25.982839748279
4	32065	4.046	25.982839748279
4	32118	4.052	25.982839748279
4	32170	4.058	25.982839748279
4	32222	4.064	25.982839748279
4	32274	4.07	25.982839748279
4	32325	4.076	25.982839748279
4	32378	4.082	25.982839748279
4	32430	4.088	25.982839748279
4	32482	4.094	25.982839748279
4	32534	4.1	25.982839748279
4	32585	4.106	25.982839748279
4	32638	4.112	25.982839748279
4	32690	4.118	25.982839748279
4	32742	4.124	25.982839748279
4	32794	4.13	25.982839748279
4	32845	4.136	25.982839748279
4	32898	4.142	25.982839748279
4	32950	4.148	25.982839748279
4	33002	4.154	25.982839748279
4	33054	4.16	25.982839748279
4	33105	4.166	25.982839748279
4	33158	4.172	25.982839748279
4	33210	4.178	25.982839748279
4	33262	4.184	25.982839748279
4	33314	4.19	25.982839748279
4	33365	4.196	25.982839748279
4	33418	4.202	25.982839748279
4	33470	4.208	25.982839748279
4	33522	4.214	25.982839748279
4	33574	4.22	25.982839748279
4	33625	4.226	25.982839748279
4	33678	4.232	25.982839748279
4	33730	4.238	25.982839748279
4	33782	4.244	25.982839748279
4	33834	4.25	25.982839748279
4	33885	4.256	25.982839748279
4	33938	4.262	25.982839748279
4	33990	4.268	25.982839748279
4	34042	4.274	25.982839748279
4	34094	4.28	25.982839748279
4	34145	4.286	25.982839748279
4	34198	4.292	25.982839748279
4	34250	4.298	25.982839748279
4	34302	4.304	25.982839748279
4	34354	4.31	25.982839748279
4	34405	4.316	25.982839748279
4	34458	4.322	25.982839748279
4	34510	4.328	25.982839748279
4	34562	4.334	25.982839748279
4	34614	4.34	25.982839748279
4	34665	4.346	25.982839748279
4	34718	4.352	25.982839748279
4	34770	4.358	25.982839748279
4	34822	4.364	25.982839748279
4	34874	4.37	25.982839748279
4	34925	4.376	25.982839748279
4	34978	4.382	25.982839748279
4	35030	4.388	25.982839748279
4	35082	4.394	25.982839748279
4	35134	4.4	25.982839748279
4	35185	4.406	25.982839748279
4	35238	4.412	25.982839748279
4	35290	4.418	25.982839748279
4	35342	4.424	25.982839748279
4	35394	4.43	25.982839748279
4	35445	4.436	25.982839748279
4	35498	4.442	25.982839748279
4	35550	4.448	25.982839748279
4	35602	4.454	25.982839748279
4	35654	4.46	25.982839748279
4	35705	4.466	25.982839748279
4	35758	4.472	25.982839748279
4	35810	4.478	25.982839748279
4	35862	4.484	25.982839748279
4	35914	4.49	25.982839748279
4	35965	4.496	25.982839748279
4	36018	4.502	25.982839748279
4	36070	4.508	25.982839748279
4	36122	4.514	25.982839748279
4	36174	4.52	25.982839748279
4	36225	4.526	25.982839748279
4	36278	4.532	25.982839748279
4	36330	4.538	25.982839748279
4	36382	4.544	25.982839748279
4	36434	4.55	25.982839748279
4	36485	4.556	25.982839748279
4	36538	4.562	25.982839748279
4	36590	4.568	25.982839748279
4	36642	4.574	25.982839748279
4	36694	4.58	25.982839748279
4	36745	4.586	25.982839748279
4	36798	4.592	25.982839748279
4	36850	4.598	25.982839748279
4	36902	4.604	25.982839748279
4	36954	4.61	25.982839748279
4	37005	4.616	25.982839748279
4	37058	4.622	25.982839748279
4	37110	4.628	25.982839748279
4	37162	4.634	25.982839748279
4	37214	4.64	25.982839748279
4	37265	4.646	25.982839748279
4	37318	4.652	25.982839748279
4	37370	4.658	25.982839748279
4	37422	4.664	25.982839748279
4	37474	4.67	25.982839748279
4	37525	4.676	25.982839748279
4	37578	4.682	25.982839748279
4	37630	4.688	25.982839748279
4	37682	4.694	25.982839748279
4	37734	4.7	25.982839748279
4	37785	4.706	25.982839748279
4	37838	4.712	25.982839748279
4	37890	4.718	25.982839748279
4	37942	4.724	25.982839748279
4	37994	4.73	25.982839748279
4	38045	4.736	25.982839748279
4	38098	4.742	25.982839748279
4	38150	4.748	25.982839748279
4	38202	4.754	25.982839748279
4	38254	4.76	25.982839748279
4	38305	4.766	25.982839748279
4	38358	4.772	25.982839748279
4	38410	4.778	25.982839748279
4	38462	4.784	25.982839748279
4	38514	4.79	25.982839748279
4	38565	4.796	25.982839748279
4	38618	4.802	25.982839748279
4	38670	4.808	25.982839748279
4	38722	4.814	25.982839748279
4	38774	4.82	25.982839748279
4	38825	4.826	25.982839748279
4	38878	4.832	25.982839748279
4	38930	4.838	25.982839748279
4	38982	4.844	25.982839748279
4	39034	4.85	25.982839748279
4	39085	4.856	25.982839748279
4	39138	4.862	25.982839748279
4	39190	4.868	25.982839748279
4	39242	4.874	25.982839748279
4	39294	4.88	25.982839748279
4	39345	4.886	25.982839748279
4	39398	4.892	25.982839748279
4	39450	4.898	25.982839748279
4	39502	4.904	25.982839748279
4	39554	4.91	25.982839748279
4	39605	4.916	25.982839748279
4	39658	4.922	25.982839748279
4	39710	4.928	25.982839748279
4	39762	4.934	25.982839748279
4	39814	4.94	25.982839748279
4	39865	4.946	25.982839748279
4	39918	4.952	25.982839748279
4	39970	4.958	25.982839748279
4	40022	4.964	25.982839748279
4	40074	4.97	25.982839748279
4	40125	4.976	25.982839748279
4	40178	4.982	25.982839748279
4	40230	4.988	25.982839748279
4	40282	4.994	25.982839748279
4	40334	5	25.982839748279
4	40385	5.006	25.982839748279
4	40438	5.012	25.982839748279
4	40490	5.018	25.982839748279
4	40542	5.024	25.982839748279
4	40594	5.03	25.982839748279
4	40645	5.036	25.982839748279
4	40698	5.042	25.982839748279
4	40750	5.048	25.982839748279
4	40802	5.054	25.982839748279
4	40854	5.06	25.982839748279
4	40905	5.066	25.982839748279
4	40958	5.072	25.982839748279
4	41010	5.078	25.982839748279
4	41062	5.084	25.982839748279
4	41114	5.09	25.982839748279
4	41165	5.096	25.982839748279
4	41218	5.102	25.982839748279
4	41270	5.108	25.982839748279
4	41322	5.114	25.982839748279
4	41374	5.12	25.982839748279
4	41425	5.126	25.982839748279
4	41478	5.132	25.982839748279
4	41530	5.138	25.982839748279
4	41582	5.144	25.982839748279
4	41634	5.15	25.982839748279
4	41685	5.156	25.982839748279
4	41738	5.162	25.982839748279
4	41790	5.168	25.982839748279
4	41842	5.174	25.982839748279
4	41894	5.18	25.982839748279
4	41945	5.186	25.982839748279
4	41998	5.192	25.982839748279
4	42050	5.198	25.982839748279
4	42102	5.204	25.982839748279
4	42154	5.21	25.982839748279
4	42205	5.216	25.982839748279
4	42258	5.222	25.982839748279
4	42310	5.228	25.982839748279
4	42362	5.234	25.982839748279
4	42414	5.24	25.982839748279
4	42465	5.246	25.982839748279
4	42518	5.252	25.982839748279
4	42570	5.258	25.982839748279
4	42622	5.264	25.982839748279
4	42674	5.27	25.982839748279
4	42725	5.276	25.982839748279
4	42778	5.282	25.982839748279
4	42830	5.288	25.982839748279
4	42882	5.294	25.982839748279
4	42934	5.3	25.982839748279
4	42985	5.306	25.982839748279
4	43038	5.312	25.982839748279
4	43090	5.318	25.982839748279
4	43142	5.324	25.982839748279
4	43194	5.33	25.982839748279
4	43245	5.336	25.982839748279
4	43298	5.342	25.982839748279
4	43350	5.348	25.982839748279
4	43402	5.354	25.982839748279
4	43454	5.36	25.982839748279
4	43505	5.366	25.982839748279
4	43558	5.372	25.982839748279
4	43610	5.378	25.982839748279
4	43662	5.384	25.982839748279
4	43714	5.39	25.982839748279
4	43765	5.396	25.982839748279
4	43818	5.402	25.982839748279
4	43870	5.408	25.982839748279
4	43922	5.414	25.982839748279
4	43974	5.42	25.982839748279
4	44025	5.426	25.982839748279
4	44078	5.432	25.982839748279
4	44130	5.438	25.982839748279
4	44182	5.444	25.982839748279
4	44234	5.45	25.982839748279
4	44285	5.456	25.982839748279
4	44338	5.462	25.982839748279
4	44390	5.468	25.982839748279
4	44442	5.474	25.982839748279
4	44494	5.48	25.982839748279
4	44545	5.486	25.982839748279
4	44598	5.492	25.982839748279
4	44650	5.498	25.982839748279
4	44702	5.504	25.982839748279
4	44754	5.51	25.982839748279
4	44805	5.516	25.982839748279
4	44858	5.522	25.982839748279
4	44910	5.528	25.982839748279
4	44962	5.534	25.982839748279
4	45014	5.54	25.982839748279
4	45065	5.546	25.982839748279
4	45118	5.552	25.982839748279
4	45170	5.558	25.982839748279
4	45222	5.564	25.982839748279
4	45274	5.57	25.982839748279
4	45325	5.576	25.982839748279
4	45378	5.582	25.982839748279
4	45430	5.588	25.982839748279
4	45482	5.594	25.982839748279
4	45534	5.6	25.982839748279
4	45585	5.606	25.982839748279
4	45638	5.612	25.982839748279
4	45690	5.618	25.982839748279
4	45742	5.624	25.982839748279
4	45794	5.63	25.982839748279
4	45845	5.636	25.982839748279
4	45898	5.642	25.982839748279
4	45950	5.648	25.982839748279
4	46002	5.654	25.982839748279
4	46054	5.66	25.982839748279
4	46105	5.666	25.982839748279
4	46158	5.672	25.982839748279
4	46210	5.678	25.982839748279
4	46262	5.684	25.982839748279
4	46314	5.69	25.982839748279
4	46365	5.696	25.982839748279
4	46418	5.702	25.982839748279
4	46470	5.708	25.982839748279
4	46522	5.714	25.982839748279
4	46574	5.72	25.982839748279
4	46625	5.726	25.982839748279
4	46678	5.732	25.982839748279
4	46730	5.738	25.982839748279
4	46782	5.744	25.982839748279
4	46834	5.75	25.982839748279
4	46885	5.756	25.982839748279
4	46938	5.762	25.982839748279
4	46990	5.768	25.982839748279
4	47042	5.774	25.982839748279
4	47094	5.78	25.982839748279
4	47145	5.786	25.982839748279
4	47198	5.792	25.982839748279
4	47250	5.798	25.982839748279
4	47302	5.804	25.982839748279
4	47354	5.81	25.982839748279
4	47405	5.816	25.982839748279
4	47458	5.822	25.982839748279
4	47510	5.828	25.982839748279
4	47562	5.834	25.982839748279
4	47614	5.84	25.982839748279
4	47665	5.846	25.982839748279
4	47718	5.852	25.982839748279
4	47770	5.858	25.982839748279
4	47822	5.864	25.982839748279
4	47874	5.87	25.982839748279
4	47925	5.876	25.982839748279
4	47978	5.882	25.982839748279
4	48030	5.888	25.982839748279
4	48082	5.894	25.982839748279
4	48134	5.9	25.982839748279
4	48185	5.906	25.982839748279
4	48238	5.912	25.982839748279
4	48290	5.918	25.982839748279
4	48342	5.924	25.982839748279
4	48394	5.93	25.982839748279
4	48445	5.936	25.982839748279
4	48498	5.942	25.982839748279
4	48550	5.948	25.982839748279
4	48602	5.954	25.982839748279
4	48654	5.96	25.982839748279
4	48705	5.966	25.982839748279
4	48758	5.972	25.982839748279
4	48810	5.978	25.982839748279
4	48862	5.984	25.982839748279
4	48914	5.99	25.982839748279